
     Program HP v.7.1 starts on 29Nov2022 at 11:32:48

     This program is part of the open-source Quantum ESPRESSO suite
     for quantum simulation of materials; please cite
         "P. Giannozzi et al., J. Phys.:Condens. Matter 21 395502 (2009);
         "P. Giannozzi et al., J. Phys.:Condens. Matter 29 465901 (2017);
         "P. Giannozzi et al., J. Chem. Phys. 152 154105 (2020);
          URL http://www.quantum-espresso.org",
     in publications or presentations arising from this work. More details at
     http://www.quantum-espresso.org/quote

     Parallel version (MPI), running on    10 processors

     MPI processes distributed on     1 nodes
     K-points division:     npool     =       2
     R & G space division:  proc/nbgrp/npool/nimage =       5
     22177 MiB available memory on the printing compute node when the environment starts


     =---------------------------------------------------------------------------=

           Calculation of Hubbard parameters using the HP code based on DFPT

               Please cite the following papers when using this program:

                 - HP code : Comput. Phys. Commun. 279, 108455 (2022).

                 - Theory  : Phys. Rev. B 98,  085127 (2018) and

                             Phys. Rev. B 103, 045141 (2021).

     =-----------------------------------------------------------------------------=

     Reading xml data from directory:

     out/aiida.save/
     file O.pbe-n-kjpaw_psl.0.1.UPF: wavefunction(s)  2P renormalized

     IMPORTANT: XC functional enforced from input :
     Exchange-correlation= PBE
                           (   1   4   3   4   0   0   0)
     Any further DFT definition will be discarded
     Please, verify this is what you really want


     Parallelization info
     --------------------
     sticks:   dense  smooth     PW     G-vecs:    dense   smooth      PW
     Min         303     151     50                 5854     2056     402
     Max         304     151     51                 5855     2057     404
     Sum        1517     755    253                29271    10281    2015

     Using Slab Decomposition


     Check: negative core charge=   -0.000017
     Reading collected, re-writing distributed wavefunctions


     bravais-lattice index     =             0
     lattice parameter (alat)  =        9.3705 (a.u.)
     unit-cell volume          =      217.1091 (a.u.)^3
     number of atoms/cell      =             4
     number of atomic types    =             3
     kinetic-energy cut-off    =         50.00 (Ry)
     charge density cut-off    =        400.00 (Ry)
     conv. thresh. for NSCF    =       1.0E-11
     conv. thresh. for chi     =       1.0E-06
     Input Hubbard parameters (in eV):
       V (  1,   1)  =   0.0000
       V (  1,  11)  =   0.0000
       V (  1,  19)  =   0.0000
       V (  1,  22)  =   0.0000
       V (  1,  43)  =   0.0000
       V (  1,  46)  =   0.0000
       V (  1,  54)  =   0.0000
       V (  2,   2)  =   0.0000
       V (  2,  57)  =   0.0000
       V (  2,  65)  =   0.0000
       V (  2,  89)  =   0.0000
       V (  3,   3)  =   0.0000
       V (  3,  69)  =   0.0000
       V (  3,  93)  =   0.0000
       V (  3, 101)  =   0.0000
       V (  4,   4)  =   0.0000

     celldm(1) =  9.37050  celldm(2) =  0.00000  celldm(3) =  0.00000
     celldm(4) =  0.00000  celldm(5) =  0.00000  celldm(6) =  0.00000

     crystal axes: (cart. coord. in units of alat)
               a(1) = (  0.2840 -0.1639  0.9447 )
               a(2) = (  0.0000  0.3279  0.9447 )
               a(3) = ( -0.2840 -0.1639  0.9447 )

     reciprocal axes: (cart. coord. in units 2 pi/alat)
               b(1) = (  1.7608 -1.0166  0.3528 )
               b(2) = (  0.0000  2.0333  0.3528 )
               b(3) = ( -1.7608 -1.0166  0.3528 )

     Atoms inside the unit cell (Cartesian axes):
     site n.  atom      mass           positions (alat units)
        1      Co     58.9332   tau(  1) = (  0.00000  0.00000  0.00000  )
        2      O      15.9990   tau(  2) = (  0.00000  0.00000  0.73827  )
        3      O      15.9990   tau(  3) = (  0.00000  0.00000  2.09589  )
        4      Li      6.9400   tau(  4) = (  0.00000  0.00000  1.41708  )

     List of  2 atoms which will be perturbed (one at a time):

        1      Co     58.9332   tau( 1) = (  0.00000  0.00000  0.00000  )
        2      O      15.9990   tau( 2) = (  0.00000  0.00000  0.73827  )

     =====================================================================

                          PERTURBED ATOM #    1

     site n.  atom      mass           positions (alat units)
        1      Co     58.9332   tau( 1) = (  0.00000  0.00000  0.00000  )

     =====================================================================

     The perturbed atom has a type which is unique!


     The grid of q-points ( 1, 1, 1)  (  1 q-points ) :
       N       xq(1)         xq(2)         xq(3)       wq
       1   0.000000000   0.000000000   0.000000000   1.000000000


     =-------------------------------------------------------------=

     Calculation for q #   1 = (   0.0000000   0.0000000   0.0000000 )

     =-------------------------------------------------------------=

                   WRITING LINEAR-RESPONSE SUMMARY:


     Number of symmetries in the small group of q, nsymq = 12
      + the symmetry q -> -q+G

     Symmetry matrices (and vectors of fractional translations if f/=0):

     isym =  1     identity

     cryst.   s( 1) = (     1          0          0      )
                      (     0          1          0      )
                      (     0          0          1      )

     cart.    s( 1) = (  1.0000000  0.0000000  0.0000000 )
                      (  0.0000000  1.0000000  0.0000000 )
                      (  0.0000000  0.0000000  1.0000000 )


     isym =  2     180 deg rotation - cart. axis [1,0,0]

     cryst.   s( 2) = (     0          0         -1      )
                      (     0         -1          0      )
                      (    -1          0          0      )

     cart.    s( 2) = (  1.0000000  0.0000000  0.0000000 )
                      (  0.0000000 -1.0000000 -0.0000000 )
                      (  0.0000000  0.0000000 -1.0000000 )


     isym =  3     120 deg rotation - cryst. axis [0,0,1]

     cryst.   s( 3) = (     0          1          0      )
                      (     0          0          1      )
                      (     1          0          0      )

     cart.    s( 3) = ( -0.5000000 -0.8660254 -0.0000000 )
                      (  0.8660254 -0.5000000 -0.0000000 )
                      (  0.0000000  0.0000000  1.0000000 )


     isym =  4     120 deg rotation - cryst. axis [0,0,-1]

     cryst.   s( 4) = (     0          0          1      )
                      (     1          0          0      )
                      (     0          1          0      )

     cart.    s( 4) = ( -0.5000000  0.8660254  0.0000000 )
                      ( -0.8660254 -0.5000000 -0.0000000 )
                      (  0.0000000  0.0000000  1.0000000 )


     isym =  5     180 deg rotation - cryst. axis [0,1,0]

     cryst.   s( 5) = (     0         -1          0      )
                      (    -1          0          0      )
                      (     0          0         -1      )

     cart.    s( 5) = ( -0.5000000 -0.8660254 -0.0000000 )
                      ( -0.8660254  0.5000000  0.0000000 )
                      (  0.0000000  0.0000000 -1.0000000 )


     isym =  6     180 deg rotation - cryst. axis [1,1,0]

     cryst.   s( 6) = (    -1          0          0      )
                      (     0          0         -1      )
                      (     0         -1          0      )

     cart.    s( 6) = ( -0.5000000  0.8660254  0.0000000 )
                      (  0.8660254  0.5000000  0.0000000 )
                      (  0.0000000  0.0000000 -1.0000000 )


     isym =  7     inversion

     cryst.   s( 7) = (    -1          0          0      )
                      (     0         -1          0      )
                      (     0          0         -1      )

     cart.    s( 7) = ( -1.0000000  0.0000000  0.0000000 )
                      (  0.0000000 -1.0000000 -0.0000000 )
                      (  0.0000000  0.0000000 -1.0000000 )


     isym =  8     inv. 180 deg rotation - cart. axis [1,0,0]

     cryst.   s( 8) = (     0          0          1      )
                      (     0          1          0      )
                      (     1          0          0      )

     cart.    s( 8) = ( -1.0000000  0.0000000  0.0000000 )
                      (  0.0000000  1.0000000  0.0000000 )
                      (  0.0000000  0.0000000  1.0000000 )


     isym =  9     inv. 120 deg rotation - cryst. axis [0,0,1]

     cryst.   s( 9) = (     0         -1          0      )
                      (     0          0         -1      )
                      (    -1          0          0      )

     cart.    s( 9) = (  0.5000000  0.8660254  0.0000000 )
                      ( -0.8660254  0.5000000  0.0000000 )
                      (  0.0000000  0.0000000 -1.0000000 )


     isym = 10     inv. 120 deg rotation - cryst. axis [0,0,-1]

     cryst.   s(10) = (     0          0         -1      )
                      (    -1          0          0      )
                      (     0         -1          0      )

     cart.    s(10) = (  0.5000000 -0.8660254 -0.0000000 )
                      (  0.8660254  0.5000000  0.0000000 )
                      (  0.0000000  0.0000000 -1.0000000 )


     isym = 11     inv. 180 deg rotation - cryst. axis [0,1,0]

     cryst.   s(11) = (     0          1          0      )
                      (     1          0          0      )
                      (     0          0          1      )

     cart.    s(11) = (  0.5000000  0.8660254  0.0000000 )
                      (  0.8660254 -0.5000000 -0.0000000 )
                      (  0.0000000  0.0000000  1.0000000 )


     isym = 12     inv. 180 deg rotation - cryst. axis [1,1,0]

     cryst.   s(12) = (     1          0          0      )
                      (     0          0          1      )
                      (     0          1          0      )

     cart.    s(12) = (  0.5000000 -0.8660254 -0.0000000 )
                      ( -0.8660254 -0.5000000 -0.0000000 )
                      (  0.0000000  0.0000000  1.0000000 )


     This transformation sends q -> -q+G

     isym = 13     identity

     cryst.   s(13) = (     1          0          0      )
                      (     0          1          0      )
                      (     0          0          1      )

     cart.    s(13) = (  1.0000000  0.0000000  0.0000000 )
                      (  0.0000000  1.0000000  0.0000000 )
                      (  0.0000000  0.0000000  1.0000000 )


     G cutoff =  889.6635  (   5854 G-vectors)     FFT grid: ( 60, 60, 60)
     G cutoff =  444.8318  (   2057 G-vectors)  smooth grid: ( 45, 45, 45)

     Number of k (and k+q if q/=0) points =    32

                       cart. coord. (in units 2pi/alat)
        k (    1) = (   0.0000000   0.0000000   0.0000000), wk = 0.0092593
        k (    2) = (  -0.2934745  -0.1694376   0.0588065), wk = 0.0555556
        k (    3) = (  -0.5869491  -0.3388752   0.1176129), wk = 0.0555556
        k (    4) = (   0.8804236   0.5083128  -0.1764194), wk = 0.0277778
        k (    5) = (  -0.2934745   0.1694376   0.1176129), wk = 0.0555556
        k (    6) = (  -0.5869491   0.0000000   0.1764194), wk = 0.1111111
        k (    7) = (   0.8804236   0.8471880  -0.1176129), wk = 0.1111111
        k (    8) = (   0.5869491   0.6777504  -0.0588065), wk = 0.1111111
        k (    9) = (   0.2934745   0.5083128   0.0000000), wk = 0.0555556
        k (   10) = (  -0.5869491   0.3388752   0.2352258), wk = 0.0555556
        k (   11) = (   0.8804236   1.1860632  -0.0588065), wk = 0.1111111
        k (   12) = (   0.5869491   1.0166256   0.0000000), wk = 0.0555556
        k (   13) = (   0.8804236  -0.5083128  -0.3528387), wk = 0.0277778
        k (   14) = (   0.0000000   0.0000000   0.1764194), wk = 0.0185185
        k (   15) = (  -0.2934745  -0.1694376   0.2352258), wk = 0.0555556
        k (   16) = (   1.1738981   0.6777504  -0.0588065), wk = 0.0555556
        k (   17) = (   0.8804236   0.5083128   0.0000000), wk = 0.0555556
        k (   18) = (   0.5869491   0.3388752   0.0588065), wk = 0.0555556
        k (   19) = (  -0.2934745   0.1694376   0.2940323), wk = 0.0555556
        k (   20) = (   1.1738981   1.0166256   0.0000000), wk = 0.1111111
        k (   21) = (   0.8804236   0.8471880   0.0588065), wk = 0.1111111
        k (   22) = (   0.5869491   0.6777504   0.1176129), wk = 0.1111111
        k (   23) = (   1.1738981  -0.6777504  -0.2940323), wk = 0.0555556
        k (   24) = (   0.8804236  -0.8471880  -0.2352258), wk = 0.1111111
        k (   25) = (   0.5869491  -1.0166256  -0.1764194), wk = 0.0555556
        k (   26) = (   0.8804236  -0.5083128  -0.1764194), wk = 0.0555556
        k (   27) = (   0.0000000   0.0000000   0.3528387), wk = 0.0185185
        k (   28) = (   1.4673727   0.8471880   0.0588065), wk = 0.0555556
        k (   29) = (   1.1738981   0.6777504   0.1176129), wk = 0.0555556
        k (   30) = (   1.4673727  -0.8471880  -0.2352258), wk = 0.0555556
        k (   31) = (   1.1738981  -1.0166256  -0.1764194), wk = 0.0555556
        k (   32) = (   0.0000000   0.0000000  -0.5292581), wk = 0.0092593

                       cryst. coord.
        k (    1) = (   0.0000000   0.0000000   0.0000000), wk = 0.0092593
        k (    2) = (  -0.0000000   0.0000000   0.1666667), wk = 0.0555556
        k (    3) = (   0.0000000   0.0000000   0.3333333), wk = 0.0555556
        k (    4) = (   0.0000000   0.0000000  -0.5000000), wk = 0.0277778
        k (    5) = (  -0.0000000   0.1666667   0.1666667), wk = 0.0555556
        k (    6) = (  -0.0000000   0.1666667   0.3333333), wk = 0.1111111
        k (    7) = (   0.0000000   0.1666667  -0.5000000), wk = 0.1111111
        k (    8) = (   0.0000000   0.1666667  -0.3333333), wk = 0.1111111
        k (    9) = (  -0.0000000   0.1666667  -0.1666667), wk = 0.0555556
        k (   10) = (  -0.0000000   0.3333333   0.3333333), wk = 0.0555556
        k (   11) = (   0.0000000   0.3333333  -0.5000000), wk = 0.1111111
        k (   12) = (  -0.0000000   0.3333333  -0.3333333), wk = 0.0555556
        k (   13) = (   0.0000000  -0.5000000  -0.5000000), wk = 0.0277778
        k (   14) = (   0.1666667   0.1666667   0.1666667), wk = 0.0185185
        k (   15) = (   0.1666667   0.1666667   0.3333333), wk = 0.0555556
        k (   16) = (   0.1666667   0.1666667  -0.5000000), wk = 0.0555556
        k (   17) = (   0.1666667   0.1666667  -0.3333333), wk = 0.0555556
        k (   18) = (   0.1666667   0.1666667  -0.1666667), wk = 0.0555556
        k (   19) = (   0.1666667   0.3333333   0.3333333), wk = 0.0555556
        k (   20) = (   0.1666667   0.3333333  -0.5000000), wk = 0.1111111
        k (   21) = (   0.1666667   0.3333333  -0.3333333), wk = 0.1111111
        k (   22) = (   0.1666667   0.3333333  -0.1666667), wk = 0.1111111
        k (   23) = (   0.1666667  -0.5000000  -0.5000000), wk = 0.0555556
        k (   24) = (   0.1666667  -0.5000000  -0.3333333), wk = 0.1111111
        k (   25) = (   0.1666667  -0.5000000  -0.1666667), wk = 0.0555556
        k (   26) = (   0.1666667  -0.3333333  -0.3333333), wk = 0.0555556
        k (   27) = (   0.3333333   0.3333333   0.3333333), wk = 0.0185185
        k (   28) = (   0.3333333   0.3333333  -0.5000000), wk = 0.0555556
        k (   29) = (   0.3333333   0.3333333  -0.3333333), wk = 0.0555556
        k (   30) = (   0.3333333  -0.5000000  -0.5000000), wk = 0.0555556
        k (   31) = (   0.3333333  -0.5000000  -0.3333333), wk = 0.0555556
        k (   32) = (  -0.5000000  -0.5000000  -0.5000000), wk = 0.0092593

     Atomic wfc used for the projector on the Hubbard manifold are orthogonalized

     Total time spent up to now is:
     HP           :      0.30s CPU      0.46s WALL

      =--------------------------------------------=
                 SOLVE THE LINEAR SYSTEM
      =--------------------------------------------=

      atom #  1   q point #   1   iter #   1
      chi:   1  -0.2708703817
      chi:   2   0.1256760787
      chi:   3   0.1256760787
      Average number of iter. to solve lin. system:   41.7
      Total CPU time :     3.9 s

      atom #  1   q point #   1   iter #   2
      chi:   1   0.1323128083   residue:    0.4031831900
      chi:   2  -0.0888335277   residue:    0.2145096064
      chi:   3  -0.0888335277   residue:    0.2145096064
      Average number of iter. to solve lin. system:   17.7
      Total CPU time :     5.5 s

      atom #  1   q point #   1   iter #   3
      chi:   1  -0.0940102429   residue:    0.2263230512
      chi:   2   0.0316585508   residue:    0.1204920786
      chi:   3   0.0316585508   residue:    0.1204920786
      Average number of iter. to solve lin. system:   16.6
      Total CPU time :     7.0 s

      atom #  1   q point #   1   iter #   4
      chi:   1  -0.0890186273   residue:    0.0049916156
      chi:   2   0.0291868179   residue:    0.0024717330
      chi:   3   0.0291868179   residue:    0.0024717330
      Average number of iter. to solve lin. system:   16.8
      Total CPU time :     8.5 s

      atom #  1   q point #   1   iter #   5
      chi:   1  -0.0863712299   residue:    0.0026473974
      chi:   2   0.0279712574   residue:    0.0012155605
      chi:   3   0.0279712574   residue:    0.0012155605
      Average number of iter. to solve lin. system:   17.7
      Total CPU time :    10.0 s

      atom #  1   q point #   1   iter #   6
      chi:   1  -0.0864936836   residue:    0.0001224537
      chi:   2   0.0281106970   residue:    0.0001394396
      chi:   3   0.0281106970   residue:    0.0001394396
      Average number of iter. to solve lin. system:   18.4
      Total CPU time :    11.7 s

      atom #  1   q point #   1   iter #   7
      chi:   1  -0.0864638605   residue:    0.0000298231
      chi:   2   0.0280884939   residue:    0.0000222031
      chi:   3   0.0280884939   residue:    0.0000222031
      Average number of iter. to solve lin. system:   18.5
      Total CPU time :    13.2 s

      atom #  1   q point #   1   iter #   8
      chi:   1  -0.0864610850   residue:    0.0000027754
      chi:   2   0.0280863913   residue:    0.0000021026
      chi:   3   0.0280863913   residue:    0.0000021026
      Average number of iter. to solve lin. system:   18.4
      Total CPU time :    14.9 s

      atom #  1   q point #   1   iter #   9
      chi:   1  -0.0864665218   residue:    0.0000054367
      chi:   2   0.0280903760   residue:    0.0000039847
      chi:   3   0.0280903760   residue:    0.0000039847
      Average number of iter. to solve lin. system:   18.2
      Total CPU time :    16.6 s

      atom #  1   q point #   1   iter #  10
      chi:   1  -0.0864664005   residue:    0.0000001212
      chi:   2   0.0280899994   residue:    0.0000003766
      chi:   3   0.0280899994   residue:    0.0000003766
      Average number of iter. to solve lin. system:   18.8
      Total CPU time :    18.1 s

      =--------------------------------------------=
             CONVERGENCE HAS BEEN REACHED
      =--------------------------------------------=

     Computing the sum over q of the response occupation matrices...

     q #   1 =  0.000000000   0.000000000   0.000000000

     Reading xml data from directory:

     out/aiida.save/
     file O.pbe-n-kjpaw_psl.0.1.UPF: wavefunction(s)  2P renormalized

     IMPORTANT: XC functional enforced from input :
     Exchange-correlation= PBE
                           (   1   4   3   4   0   0   0)
     Any further DFT definition will be discarded
     Please, verify this is what you really want


     Parallelization info
     --------------------
     sticks:   dense  smooth     PW     G-vecs:    dense   smooth      PW
     Min         303     151     50                 5854     2056     402
     Max         304     151     51                 5855     2057     404
     Sum        1517     755    253                29271    10281    2015

     Using Slab Decomposition


     Check: negative core charge=   -0.000017
     Reading collected, re-writing distributed wavefunctions

     =====================================================================

                          PERTURBED ATOM #    2

     site n.  atom      mass           positions (alat units)
        2      O      15.9990   tau( 2) = (  0.00000  0.00000  0.73827  )

     =====================================================================

     The perturbed atom has a type which is not unique!
     Changing the type of the perturbed atom and recomputing the symmetries...
     The number of symmetries is reduced :
     nsym =  6  nsym_PWscf = 12
     Changing the type of the perturbed atom back to its original type...


     The grid of q-points ( 1, 1, 1)  (  1 q-points ) :
       N       xq(1)         xq(2)         xq(3)       wq
       1   0.000000000   0.000000000   0.000000000   1.000000000


     =-------------------------------------------------------------=

     Calculation for q #   1 = (   0.0000000   0.0000000   0.0000000 )

     =-------------------------------------------------------------=

     Do NSCF calculation at q=0 because the number of symmetries was reduced

     Performing NSCF calculation at all points k...
     Subspace diagonalization in iterative solution of the eigenvalue problem:
     one sub-group per band group will be used
     scalapack distributed-memory algorithm (size of sub-group:  2*  2 procs)


     Parallelization info
     --------------------
     sticks:   dense  smooth     PW     G-vecs:    dense   smooth      PW
     Min         303     151     50                 5854     2056     402
     Max         304     151     51                 5855     2057     404
     Sum        1517     755    253                29271    10281    2015

     Using Slab Decomposition



     bravais-lattice index     =            0
     lattice parameter (alat)  =       9.3705  a.u.
     unit-cell volume          =     217.1091 (a.u.)^3
     number of atoms/cell      =            4
     number of atomic types    =            3
     number of electrons       =        32.00
     number of Kohn-Sham states=           16
     kinetic-energy cutoff     =      50.0000  Ry
     charge density cutoff     =     400.0000  Ry
     Exchange-correlation= PBE
                           (   1   4   3   4   0   0   0)
     Hubbard projectors: ortho-atomic

     Internal variables: lda_plus_u = T, lda_plus_u_kind = 2

     celldm(1)=   9.370500  celldm(2)=   0.000000  celldm(3)=   0.000000
     celldm(4)=   0.000000  celldm(5)=   0.000000  celldm(6)=   0.000000

     crystal axes: (cart. coord. in units of alat)
               a(1) = (   0.283954  -0.163941   0.944719 )
               a(2) = (   0.000000   0.327882   0.944719 )
               a(3) = (  -0.283954  -0.163941   0.944719 )

     reciprocal axes: (cart. coord. in units 2 pi/alat)
               b(1) = (  1.760847 -1.016626  0.352839 )
               b(2) = (  0.000000  2.033251  0.352839 )
               b(3) = ( -1.760847 -1.016626  0.352839 )


     PseudoPot. # 1 for Co read from file:
     ./pseudo/Co_pbe_v1.2.uspp.F.UPF
     MD5 check sum: 5f91765df6ddd3222702df6e7b74a16d
     Pseudo is Ultrasoft + core correction, Zval = 17.0
     Generated by new atomic code, or converted to UPF format
     Using radial grid of  863 points,  6 beta functions with:
                l(1) =   0
                l(2) =   0
                l(3) =   1
                l(4) =   1
                l(5) =   2
                l(6) =   2
     Q(r) pseudized with  8 coefficients,  rinner =    1.200   1.200   1.200
                                                       1.200   1.200

     PseudoPot. # 2 for Li read from file:
     ./pseudo/li_pbe_v1.4.uspp.F.UPF
     MD5 check sum: e912e257baa3777c20ea3d68f190483c
     Pseudo is Ultrasoft, Zval =  3.0
     Generated by new atomic code, or converted to UPF format
     Using radial grid of  751 points,  5 beta functions with:
                l(1) =   0
                l(2) =   0
                l(3) =   0
                l(4) =   1
                l(5) =   1
     Q(r) pseudized with 10 coefficients,  rinner =    1.150   1.150   1.150


     PseudoPot. # 3 for O  read from file:
     ./pseudo/O.pbe-n-kjpaw_psl.0.1.UPF
     MD5 check sum: 0234752ac141de4415c5fc33072bef88
     Pseudo is Projector augmented-wave + core cor, Zval =  6.0
     Generated using "atomic" code by A. Dal Corso  v.5.0.99 svn rev. 10869
     Shape of augmentation charge: BESSEL
     Using radial grid of 1095 points,  4 beta functions with:
                l(1) =   0
                l(2) =   0
                l(3) =   1
                l(4) =   1
     Q(r) pseudized with 0 coefficients


     atomic species   valence    mass     pseudopotential
        Co            17.00    58.93319     Co( 1.00)
        Li             3.00     6.94000     Li( 1.00)
        O              6.00    15.99900     O ( 1.00)

      6 Sym. Ops. (no inversion) found



   Cartesian axes

     site n.     atom                  positions (alat units)
         1           Co  tau(   1) = (   0.0000000   0.0000000   0.0000000  )
         2           O   tau(   2) = (   0.0000000   0.0000000   0.7382650  )
         3           O   tau(   3) = (   0.0000000   0.0000000   2.0958909  )
         4           Li  tau(   4) = (   0.0000000   0.0000000   1.4170780  )

     number of k points=    32
                       cart. coord. in units 2pi/alat
        k(    1) = (   0.0000000   0.0000000   0.0000000), wk =   0.0092593
        k(    2) = (  -0.2934745  -0.1694376   0.0588065), wk =   0.0555556
        k(    3) = (  -0.5869491  -0.3388752   0.1176129), wk =   0.0555556
        k(    4) = (   0.8804236   0.5083128  -0.1764194), wk =   0.0277778
        k(    5) = (  -0.2934745   0.1694376   0.1176129), wk =   0.0555556
        k(    6) = (  -0.5869491   0.0000000   0.1764194), wk =   0.1111111
        k(    7) = (   0.8804236   0.8471880  -0.1176129), wk =   0.1111111
        k(    8) = (   0.5869491   0.6777504  -0.0588065), wk =   0.1111111
        k(    9) = (   0.2934745   0.5083128   0.0000000), wk =   0.0555556
        k(   10) = (  -0.5869491   0.3388752   0.2352258), wk =   0.0555556
        k(   11) = (   0.8804236   1.1860632  -0.0588065), wk =   0.1111111
        k(   12) = (   0.5869491   1.0166256   0.0000000), wk =   0.0555556
        k(   13) = (   0.8804236  -0.5083128  -0.3528387), wk =   0.0277778
        k(   14) = (   0.0000000   0.0000000   0.1764194), wk =   0.0185185
        k(   15) = (  -0.2934745  -0.1694376   0.2352258), wk =   0.0555556
        k(   16) = (   1.1738981   0.6777504  -0.0588065), wk =   0.0555556
        k(   17) = (   0.8804236   0.5083128   0.0000000), wk =   0.0555556
        k(   18) = (   0.5869491   0.3388752   0.0588065), wk =   0.0555556
        k(   19) = (  -0.2934745   0.1694376   0.2940323), wk =   0.0555556
        k(   20) = (   1.1738981   1.0166256   0.0000000), wk =   0.1111111
        k(   21) = (   0.8804236   0.8471880   0.0588065), wk =   0.1111111
        k(   22) = (   0.5869491   0.6777504   0.1176129), wk =   0.1111111
        k(   23) = (   1.1738981  -0.6777504  -0.2940323), wk =   0.0555556
        k(   24) = (   0.8804236  -0.8471880  -0.2352258), wk =   0.1111111
        k(   25) = (   0.5869491  -1.0166256  -0.1764194), wk =   0.0555556
        k(   26) = (   0.8804236  -0.5083128  -0.1764194), wk =   0.0555556
        k(   27) = (   0.0000000   0.0000000   0.3528387), wk =   0.0185185
        k(   28) = (   1.4673727   0.8471880   0.0588065), wk =   0.0555556
        k(   29) = (   1.1738981   0.6777504   0.1176129), wk =   0.0555556
        k(   30) = (   1.4673727  -0.8471880  -0.2352258), wk =   0.0555556
        k(   31) = (   1.1738981  -1.0166256  -0.1764194), wk =   0.0555556
        k(   32) = (   0.0000000   0.0000000  -0.5292581), wk =   0.0092593

     Dense  grid:    29271 G-vectors     FFT dimensions: (  60,  60,  60)

     Smooth grid:    10281 G-vectors     FFT dimensions: (  45,  45,  45)

     Estimated max dynamical RAM per process >      17.48 MB

     Estimated total dynamical RAM >     174.76 MB

     Check: negative core charge=   -0.000017

     The potential is recalculated from file :
     out/HP/aiida.save/charge-density


     STARTING HUBBARD OCCUPATIONS:

     =================== HUBBARD OCCUPATIONS ===================
     ------------------------ ATOM    1 ------------------------
     Tr[ns(  1)] =   7.38660
     eigenvalues:
       0.380  0.380  0.978  0.978  0.978
     eigenvectors (columns):
      -0.000 -0.000  0.000  0.000 -1.000
       0.663 -0.460 -0.080 -0.585 -0.000
       0.460  0.663  0.585 -0.080  0.000
       0.337  0.485 -0.800  0.110 -0.000
       0.485 -0.337  0.110  0.800  0.000
     occupation matrix ns (before diag.):
       0.978  0.000  0.000  0.000  0.000
       0.000  0.588  0.000 -0.000 -0.285
       0.000  0.000  0.588 -0.285 -0.000
       0.000 -0.000 -0.285  0.770 -0.000
       0.000 -0.285 -0.000 -0.000  0.770
     ------------------------ ATOM    2 ------------------------
     Tr[ns(  2)] =   4.68920
     eigenvalues:
       0.770  0.770  0.804
     eigenvectors (columns):
      -0.000 -0.000  1.000
      -0.973 -0.233 -0.000
      -0.233  0.973  0.000
     occupation matrix ns (before diag.):
       0.804 -0.000  0.000
      -0.000  0.770 -0.000
       0.000 -0.000  0.770
     ------------------------ ATOM    3 ------------------------
     Tr[ns(  3)] =   4.68920
     eigenvalues:
       0.770  0.770  0.804
     eigenvectors (columns):
      -0.000 -0.000  1.000
      -0.972 -0.233 -0.000
      -0.233  0.972  0.000
     occupation matrix ns (before diag.):
       0.804 -0.000  0.000
      -0.000  0.770 -0.000
       0.000 -0.000  0.770

     Number of occupied Hubbard levels =   16.7650

     Atomic wfc used for Hubbard projectors are orthogonalized

     Starting wfcs are   26 atomic wfcs
     Checking if some PAW data can be deallocated...

     Band Structure Calculation
     Davidson diagonalization with overlap

     ethr =  1.00E-11,  avg # of iterations = 15.7

     total cpu time spent up to now is       -1.0 secs

     End of band structure calculation

          k = 0.0000 0.0000 0.0000 (  1273 PWs)   bands (ev):

   -84.3138 -47.5944 -47.5944 -47.5696 -34.0147  -9.3974  -7.6502   3.7347
     5.5952   5.5952   8.5208   8.6506   8.6506   9.5501   9.5501  10.4956

          k =-0.2935-0.1694 0.0588 (  1297 PWs)   bands (ev):

   -84.3120 -47.6136 -47.5990 -47.5666 -34.0056  -9.0794  -7.6062   4.1202
     5.1219   5.7259   7.0405   7.9150   8.6059   9.8253  10.1428  10.6189

          k =-0.5869-0.3389 0.1176 (  1301 PWs)   bands (ev):

   -84.3083 -47.6518 -47.6082 -47.5606 -33.9875  -8.3354  -7.5553   4.2778
     5.1143   5.2066   5.8626   7.3730   7.7011   9.7604  10.3328  10.6631

          k = 0.8804 0.5083-0.1764 (  1296 PWs)   bands (ev):

   -84.3064 -47.6708 -47.6127 -47.5575 -33.9784  -7.7964  -7.6464   3.5074
     5.0797   5.5264   5.8177   7.1514   7.3618   9.6394  10.2030  10.5426

          k =-0.2935 0.1694 0.1176 (  1290 PWs)   bands (ev):

   -84.3120 -47.6136 -47.5990 -47.5666 -34.0056  -9.0698  -7.6206   4.1625
     5.1250   5.7141   6.9873   7.9497   8.6049   9.8265  10.1309  10.6024

          k =-0.5869 0.0000 0.1764 (  1298 PWs)   bands (ev):

   -84.3092 -47.6386 -47.6095 -47.5621 -33.9920  -8.5274  -7.5778   4.4987
     5.0049   5.5033   6.0669   6.8961   8.1046   9.9605  10.4215  10.5910

          k = 0.8804 0.8472-0.1176 (  1307 PWs)   bands (ev):

   -84.3064 -47.6610 -47.6226 -47.5576 -33.9784  -7.8600  -7.5872   4.0147
     4.7243   5.4823   6.2771   6.3995   7.1482   9.9353  10.3217  10.5647

          k = 0.5869 0.6778-0.0588 (  1301 PWs)   bands (ev):

   -84.3064 -47.6609 -47.6226 -47.5575 -33.9784  -7.8976  -7.5473   4.0661
     4.7932   5.4620   6.0539   6.5485   7.0128   9.9530  10.3232  10.5840

          k = 0.2935 0.5083 0.0000 (  1296 PWs)   bands (ev):

   -84.3092 -47.6386 -47.6095 -47.5621 -33.9920  -8.5573  -7.5392   4.6942
     4.7670   5.4387   6.1061   6.9114   8.0947   9.9785  10.4708  10.5552

          k =-0.5869 0.3389 0.2352 (  1284 PWs)   bands (ev):

   -84.3083 -47.6517 -47.6082 -47.5605 -33.9875  -8.3097  -7.5811   4.2102
     4.5389   5.8719   5.9104   7.3008   7.8650   9.6955  10.3017  10.5518

          k = 0.8804 1.1861-0.0588 (  1295 PWs)   bands (ev):

   -84.3064 -47.6609 -47.6226 -47.5575 -33.9784  -7.8620  -7.5789   3.9161
     4.4456   5.7821   6.0681   6.5866   7.4121   9.8701  10.3022  10.5164

          k = 0.5869 1.0166 0.0000 (  1312 PWs)   bands (ev):

   -84.3055 -47.6477 -47.6477 -47.5561 -33.9739  -7.6036  -7.6036   4.5048
     4.5381   4.7962   6.0118   6.5308   6.8824   9.8887  10.5049  10.5188

          k = 0.8804-0.5083-0.3528 (  1284 PWs)   bands (ev):

   -84.3064 -47.6707 -47.6127 -47.5575 -33.9784  -7.7652  -7.6674   3.3782
     4.3613   5.9717   6.5322   7.1094   7.2882   9.4311  10.2041  10.5198

          k = 0.0000 0.0000 0.1764 (  1268 PWs)   bands (ev):

   -84.3138 -47.5944 -47.5944 -47.5696 -34.0146  -9.3675  -7.7012   3.9317
     5.6028   5.6028   8.1650   8.6322   8.6322   9.5516   9.5516  10.5519

          k =-0.2935-0.1694 0.2352 (  1292 PWs)   bands (ev):

   -84.3120 -47.6136 -47.5990 -47.5666 -34.0056  -9.0302  -7.6815   4.3520
     5.1574   5.7591   6.9965   7.8472   8.2551   9.7700  10.1368  10.7246

          k = 1.1739 0.6778-0.0588 (  1298 PWs)   bands (ev):

   -84.3083 -47.6517 -47.6082 -47.5606 -33.9874  -8.2724  -7.6303   4.1488
     4.9269   5.6975   5.9166   7.2841   7.6720   9.6792  10.3262  10.7005

          k = 0.8804 0.5083 0.0000 (  1308 PWs)   bands (ev):

   -84.3064 -47.6708 -47.6127 -47.5576 -33.9784  -7.7895  -7.6508   3.4728
     4.7835   5.8517   5.8810   7.1972   7.3025   9.5938  10.2032  10.5363

          k = 0.5869 0.3389 0.0588 (  1285 PWs)   bands (ev):

   -84.3083 -47.6517 -47.6082 -47.5605 -33.9875  -8.3510  -7.5336   4.3176
     4.7312   5.4720   5.8598   7.3811   7.8023   9.7640  10.3200  10.5923

          k =-0.2935 0.1694 0.2940 (  1281 PWs)   bands (ev):

   -84.3120 -47.6136 -47.5990 -47.5666 -34.0055  -9.0087  -7.7126   4.4715
     5.1220   5.7344   6.9268   7.9169   8.2063   9.7865  10.1132  10.6907

          k = 1.1739 1.0166 0.0000 (  1290 PWs)   bands (ev):

   -84.3092 -47.6386 -47.6095 -47.5621 -33.9920  -8.4592  -7.6632   4.4106
     5.0332   5.7333   6.1160   6.8215   8.0706   9.9288  10.3453  10.6452

          k = 0.8804 0.8472 0.0588 (  1309 PWs)   bands (ev):

   -84.3064 -47.6610 -47.6226 -47.5576 -33.9784  -7.8082  -7.6381   3.9123
     4.5344   5.6404   6.2660   6.5070   7.3817   9.8844  10.3101  10.5186

          k = 0.5869 0.6778 0.1176 (  1297 PWs)   bands (ev):

   -84.3064 -47.6609 -47.6226 -47.5575 -33.9784  -7.8981  -7.5437   4.0112
     4.6177   5.7008   5.9170   6.6227   7.1453   9.9233  10.3150  10.5591

          k = 1.1739-0.6778-0.2940 (  1283 PWs)   bands (ev):

   -84.3083 -47.6517 -47.6082 -47.5606 -33.9874  -8.2407  -7.6622   4.1103
     4.5224   5.9703   6.2119   7.2064   7.7845   9.6132  10.2965  10.5789

          k = 0.8804-0.8472-0.2352 (  1305 PWs)   bands (ev):

   -84.3064 -47.6609 -47.6226 -47.5576 -33.9784  -7.8107  -7.6324   3.8675
     4.4174   5.7462   6.2067   6.5753   7.5155   9.8485  10.2981  10.4956

          k = 0.5869-1.0166-0.1764 (  1308 PWs)   bands (ev):

   -84.3055 -47.6477 -47.6477 -47.5561 -33.9739  -7.6036  -7.6035   4.4928
     4.5523   4.7945   6.0083   6.5372   6.8791   9.8888  10.5072  10.5165

          k = 0.8804-0.5083-0.1764 (  1290 PWs)   bands (ev):

   -84.3064 -47.6708 -47.6127 -47.5575 -33.9784  -7.7741  -7.6611   3.4083
     4.4756   5.9280   6.3291   7.1770   7.2685   9.4900  10.2038  10.5249

          k = 0.0000 0.0000 0.3528 (  1274 PWs)   bands (ev):

   -84.3138 -47.5944 -47.5944 -47.5696 -34.0145  -9.3022  -7.8082   4.4182
     5.6181   5.6181   7.4222   8.5960   8.5960   9.5537   9.5537  10.6153

          k = 1.4674 0.8472 0.0588 (  1282 PWs)   bands (ev):

   -84.3120 -47.6136 -47.5990 -47.5666 -34.0055  -8.9633  -7.7789   4.6990
     5.1623   5.7808   6.9335   7.8132   7.8291   9.7352  10.1199  10.7936

          k = 1.1739 0.6778 0.1176 (  1292 PWs)   bands (ev):

   -84.3083 -47.6518 -47.6082 -47.5606 -33.9874  -8.2169  -7.6919   4.0804
     4.6789   5.9740   6.1618   7.1977   7.6915   9.5991  10.3083  10.6555

          k = 1.4674-0.8472-0.2352 (  1282 PWs)   bands (ev):

   -84.3120 -47.6136 -47.5990 -47.5666 -34.0054  -8.9510  -7.7960   4.8391
     5.0555   5.7678   6.9422   7.7648   7.8483   9.7476  10.1082  10.7760

          k = 1.1739-1.0166-0.1764 (  1288 PWs)   bands (ev):

   -84.3092 -47.6386 -47.6095 -47.5621 -33.9919  -8.4191  -7.7118   4.4029
     4.9818   5.8041   6.2992   6.7241   8.0197   9.9169  10.3099  10.6715

          k = 0.0000 0.0000-0.5293 (  1268 PWs)   bands (ev):

   -84.3138 -47.5944 -47.5944 -47.5696 -34.0144  -9.2662  -7.8647   4.7541
     5.6258   5.6258   6.9777   8.5782   8.5782   9.5544   9.5544  10.6329

     highest occupied level (ev):    10.7936

     Writing all to output data dir out/HP/aiida.save/
     Done!

                   WRITING LINEAR-RESPONSE SUMMARY:


     Number of symmetries in the small group of q, nsymq =  6
      + the symmetry q -> -q+G

     Symmetry matrices (and vectors of fractional translations if f/=0):

     isym =  1     identity

     cryst.   s( 1) = (     1          0          0      )
                      (     0          1          0      )
                      (     0          0          1      )

     cart.    s( 1) = (  1.0000000  0.0000000  0.0000000 )
                      (  0.0000000  1.0000000  0.0000000 )
                      (  0.0000000  0.0000000  1.0000000 )


     isym =  2     120 deg rotation - cryst. axis [0,0,1]

     cryst.   s( 2) = (     0          1          0      )
                      (     0          0          1      )
                      (     1          0          0      )

     cart.    s( 2) = ( -0.5000000 -0.8660254 -0.0000000 )
                      (  0.8660254 -0.5000000 -0.0000000 )
                      (  0.0000000  0.0000000  1.0000000 )


     isym =  3     120 deg rotation - cryst. axis [0,0,-1]

     cryst.   s( 3) = (     0          0          1      )
                      (     1          0          0      )
                      (     0          1          0      )

     cart.    s( 3) = ( -0.5000000  0.8660254  0.0000000 )
                      ( -0.8660254 -0.5000000 -0.0000000 )
                      (  0.0000000  0.0000000  1.0000000 )


     isym =  4     inv. 180 deg rotation - cart. axis [1,0,0]

     cryst.   s( 4) = (     0          0          1      )
                      (     0          1          0      )
                      (     1          0          0      )

     cart.    s( 4) = ( -1.0000000  0.0000000  0.0000000 )
                      (  0.0000000  1.0000000  0.0000000 )
                      (  0.0000000  0.0000000  1.0000000 )


     isym =  5     inv. 180 deg rotation - cryst. axis [0,1,0]

     cryst.   s( 5) = (     0          1          0      )
                      (     1          0          0      )
                      (     0          0          1      )

     cart.    s( 5) = (  0.5000000  0.8660254  0.0000000 )
                      (  0.8660254 -0.5000000 -0.0000000 )
                      (  0.0000000  0.0000000  1.0000000 )


     isym =  6     inv. 180 deg rotation - cryst. axis [1,1,0]

     cryst.   s( 6) = (     1          0          0      )
                      (     0          0          1      )
                      (     0          1          0      )

     cart.    s( 6) = (  0.5000000 -0.8660254 -0.0000000 )
                      ( -0.8660254 -0.5000000 -0.0000000 )
                      (  0.0000000  0.0000000  1.0000000 )


     This transformation sends q -> -q+G

     isym =  7     identity

     cryst.   s( 7) = (     1          0          0      )
                      (     0          1          0      )
                      (     0          0          1      )

     cart.    s( 7) = (  1.0000000  0.0000000  0.0000000 )
                      (  0.0000000  1.0000000  0.0000000 )
                      (  0.0000000  0.0000000  1.0000000 )


     G cutoff =  889.6635  (   5854 G-vectors)     FFT grid: ( 60, 60, 60)
     G cutoff =  444.8318  (   2057 G-vectors)  smooth grid: ( 45, 45, 45)

     Number of k (and k+q if q/=0) points =    32

                       cart. coord. (in units 2pi/alat)
        k (    1) = (   0.0000000   0.0000000   0.0000000), wk = 0.0092593
        k (    2) = (  -0.2934745  -0.1694376   0.0588065), wk = 0.0555556
        k (    3) = (  -0.5869491  -0.3388752   0.1176129), wk = 0.0555556
        k (    4) = (   0.8804236   0.5083128  -0.1764194), wk = 0.0277778
        k (    5) = (  -0.2934745   0.1694376   0.1176129), wk = 0.0555556
        k (    6) = (  -0.5869491   0.0000000   0.1764194), wk = 0.1111111
        k (    7) = (   0.8804236   0.8471880  -0.1176129), wk = 0.1111111
        k (    8) = (   0.5869491   0.6777504  -0.0588065), wk = 0.1111111
        k (    9) = (   0.2934745   0.5083128   0.0000000), wk = 0.0555556
        k (   10) = (  -0.5869491   0.3388752   0.2352258), wk = 0.0555556
        k (   11) = (   0.8804236   1.1860632  -0.0588065), wk = 0.1111111
        k (   12) = (   0.5869491   1.0166256   0.0000000), wk = 0.0555556
        k (   13) = (   0.8804236  -0.5083128  -0.3528387), wk = 0.0277778
        k (   14) = (   0.0000000   0.0000000   0.1764194), wk = 0.0185185
        k (   15) = (  -0.2934745  -0.1694376   0.2352258), wk = 0.0555556
        k (   16) = (   1.1738981   0.6777504  -0.0588065), wk = 0.0555556
        k (   17) = (   0.8804236   0.5083128   0.0000000), wk = 0.0555556
        k (   18) = (   0.5869491   0.3388752   0.0588065), wk = 0.0555556
        k (   19) = (  -0.2934745   0.1694376   0.2940323), wk = 0.0555556
        k (   20) = (   1.1738981   1.0166256   0.0000000), wk = 0.1111111
        k (   21) = (   0.8804236   0.8471880   0.0588065), wk = 0.1111111
        k (   22) = (   0.5869491   0.6777504   0.1176129), wk = 0.1111111
        k (   23) = (   1.1738981  -0.6777504  -0.2940323), wk = 0.0555556
        k (   24) = (   0.8804236  -0.8471880  -0.2352258), wk = 0.1111111
        k (   25) = (   0.5869491  -1.0166256  -0.1764194), wk = 0.0555556
        k (   26) = (   0.8804236  -0.5083128  -0.1764194), wk = 0.0555556
        k (   27) = (   0.0000000   0.0000000   0.3528387), wk = 0.0185185
        k (   28) = (   1.4673727   0.8471880   0.0588065), wk = 0.0555556
        k (   29) = (   1.1738981   0.6777504   0.1176129), wk = 0.0555556
        k (   30) = (   1.4673727  -0.8471880  -0.2352258), wk = 0.0555556
        k (   31) = (   1.1738981  -1.0166256  -0.1764194), wk = 0.0555556
        k (   32) = (   0.0000000   0.0000000  -0.5292581), wk = 0.0092593

                       cryst. coord.
        k (    1) = (   0.0000000   0.0000000   0.0000000), wk = 0.0092593
        k (    2) = (   0.0000000   0.0000000   0.1666667), wk = 0.0555556
        k (    3) = (   0.0000000   0.0000000   0.3333333), wk = 0.0555556
        k (    4) = (   0.0000000   0.0000000  -0.5000000), wk = 0.0277778
        k (    5) = (   0.0000000   0.1666667   0.1666667), wk = 0.0555556
        k (    6) = (   0.0000000   0.1666667   0.3333333), wk = 0.1111111
        k (    7) = (   0.0000000   0.1666667  -0.5000000), wk = 0.1111111
        k (    8) = (   0.0000000   0.1666667  -0.3333333), wk = 0.1111111
        k (    9) = (   0.0000000   0.1666667  -0.1666667), wk = 0.0555556
        k (   10) = (   0.0000000   0.3333333   0.3333333), wk = 0.0555556
        k (   11) = (   0.0000000   0.3333333  -0.5000000), wk = 0.1111111
        k (   12) = (   0.0000000   0.3333333  -0.3333333), wk = 0.0555556
        k (   13) = (   0.0000000  -0.5000000  -0.5000000), wk = 0.0277778
        k (   14) = (   0.1666667   0.1666667   0.1666667), wk = 0.0185185
        k (   15) = (   0.1666667   0.1666667   0.3333333), wk = 0.0555556
        k (   16) = (   0.1666667   0.1666667  -0.5000000), wk = 0.0555556
        k (   17) = (   0.1666667   0.1666667  -0.3333333), wk = 0.0555556
        k (   18) = (   0.1666667   0.1666667  -0.1666667), wk = 0.0555556
        k (   19) = (   0.1666667   0.3333333   0.3333333), wk = 0.0555556
        k (   20) = (   0.1666667   0.3333333  -0.5000000), wk = 0.1111111
        k (   21) = (   0.1666667   0.3333333  -0.3333333), wk = 0.1111111
        k (   22) = (   0.1666667   0.3333333  -0.1666667), wk = 0.1111111
        k (   23) = (   0.1666667  -0.5000000  -0.5000000), wk = 0.0555556
        k (   24) = (   0.1666667  -0.5000000  -0.3333333), wk = 0.1111111
        k (   25) = (   0.1666667  -0.5000000  -0.1666667), wk = 0.0555556
        k (   26) = (   0.1666667  -0.3333333  -0.3333333), wk = 0.0555556
        k (   27) = (   0.3333333   0.3333333   0.3333333), wk = 0.0185185
        k (   28) = (   0.3333333   0.3333333  -0.5000000), wk = 0.0555556
        k (   29) = (   0.3333333   0.3333333  -0.3333333), wk = 0.0555556
        k (   30) = (   0.3333333  -0.5000000  -0.5000000), wk = 0.0555556
        k (   31) = (   0.3333333  -0.5000000  -0.3333333), wk = 0.0555556
        k (   32) = (  -0.5000000  -0.5000000  -0.5000000), wk = 0.0092593

     Atomic wfc used for the projector on the Hubbard manifold are orthogonalized

     Total time spent up to now is:
     HP           :     19.04s CPU     20.12s WALL

      =--------------------------------------------=
                 SOLVE THE LINEAR SYSTEM
      =--------------------------------------------=

      atom #  2   q point #   1   iter #   1
      chi:   1   0.1256840183
      chi:   2  -0.2389588845
      chi:   3   0.0590683662
      Average number of iter. to solve lin. system:   43.0
      Total CPU time :    23.2 s

      atom #  2   q point #   1   iter #   2
      chi:   1  -0.0888523448   residue:    0.2145363631
      chi:   2   0.0671109646   residue:    0.3060698491
      chi:   3  -0.0067497350   residue:    0.0658181012
      Average number of iter. to solve lin. system:   18.1
      Total CPU time :    24.6 s

      atom #  2   q point #   1   iter #   3
      chi:   1   0.0508849679   residue:    0.1397373127
      chi:   2  -0.0782849878   residue:    0.1453959524
      chi:   3  -0.0084792749   residue:    0.0017295399
      Average number of iter. to solve lin. system:   17.7
      Total CPU time :    26.2 s

      atom #  2   q point #   1   iter #   4
      chi:   1   0.0271893862   residue:    0.0236955817
      chi:   2  -0.0720533631   residue:    0.0062316246
      chi:   3   0.0114624027   residue:    0.0199416776
      Average number of iter. to solve lin. system:   17.7
      Total CPU time :    28.2 s

      atom #  2   q point #   1   iter #   5
      chi:   1   0.0289242032   residue:    0.0017348170
      chi:   2  -0.0715270824   residue:    0.0005262808
      chi:   3   0.0105783641   residue:    0.0008840386
      Average number of iter. to solve lin. system:   18.9
      Total CPU time :    29.7 s

      atom #  2   q point #   1   iter #   6
      chi:   1   0.0279125894   residue:    0.0010116138
      chi:   2  -0.0707912197   residue:    0.0007358627
      chi:   3   0.0107512968   residue:    0.0001729327
      Average number of iter. to solve lin. system:   18.5
      Total CPU time :    31.5 s

      atom #  2   q point #   1   iter #   7
      chi:   1   0.0278652338   residue:    0.0000473556
      chi:   2  -0.0707805479   residue:    0.0000106718
      chi:   3   0.0106563956   residue:    0.0000949012
      Average number of iter. to solve lin. system:   18.1
      Total CPU time :    33.0 s

      atom #  2   q point #   1   iter #   8
      chi:   1   0.0281115613   residue:    0.0002463275
      chi:   2  -0.0709506179   residue:    0.0001700700
      chi:   3   0.0105422412   residue:    0.0001141544
      Average number of iter. to solve lin. system:   18.1
      Total CPU time :    34.7 s

      atom #  2   q point #   1   iter #   9
      chi:   1   0.0280983657   residue:    0.0000131956
      chi:   2  -0.0709457304   residue:    0.0000048875
      chi:   3   0.0105564016   residue:    0.0000141604
      Average number of iter. to solve lin. system:   18.4
      Total CPU time :    36.3 s

      atom #  2   q point #   1   iter #  10
      chi:   1   0.0280901685   residue:    0.0000081972
      chi:   2  -0.0709605123   residue:    0.0000147819
      chi:   3   0.0105809037   residue:    0.0000245022
      Average number of iter. to solve lin. system:   19.0
      Total CPU time :    37.8 s

      atom #  2   q point #   1   iter #  11
      chi:   1   0.0280908285   residue:    0.0000006601
      chi:   2  -0.0709533074   residue:    0.0000072049
      chi:   3   0.0105722682   residue:    0.0000086356
      Average number of iter. to solve lin. system:   18.0
      Total CPU time :    39.9 s

      atom #  2   q point #   1   iter #  12
      chi:   1   0.0280899108   residue:    0.0000009178
      chi:   2  -0.0709536052   residue:    0.0000002978
      chi:   3   0.0105727269   residue:    0.0000004588
      Average number of iter. to solve lin. system:   19.2
      Total CPU time :    41.6 s

      =--------------------------------------------=
             CONVERGENCE HAS BEEN REACHED
      =--------------------------------------------=

     Computing the sum over q of the response occupation matrices...

     q #   1 =  0.000000000   0.000000000   0.000000000

     Post-processing calculation of Hubbard parameters ...


     PRINTING TIMING FROM PWSCF ROUTINES:

     init_run     :      0.18s CPU      0.18s WALL (       1 calls)
     electrons    :      1.18s CPU      1.48s WALL (       1 calls)

     Called by init_run:
     wfcinit      :      0.01s CPU      0.01s WALL (       1 calls)
     wfcinit:atom :      0.00s CPU      0.00s WALL (      16 calls)
     wfcinit:wfcr :      0.15s CPU      0.38s WALL (      16 calls)
     potinit      :      0.03s CPU      0.03s WALL (       1 calls)
     hinit0       :      0.11s CPU      0.12s WALL (       1 calls)

     Called by electrons:
     c_bands      :      1.18s CPU      1.48s WALL (       1 calls)
     v_of_rho     :      0.04s CPU      0.07s WALL (       3 calls)
     v_h          :      0.00s CPU      0.00s WALL (       3 calls)
     v_xc         :      0.03s CPU      0.07s WALL (       3 calls)
     newd         :      0.02s CPU      0.03s WALL (       3 calls)
     PAW_pot      :      0.04s CPU      0.04s WALL (       3 calls)

     Called by c_bands:
     init_us_2    :      0.03s CPU      0.04s WALL (     448 calls)
     init_us_2:cp :      0.03s CPU      0.03s WALL (     448 calls)
     cegterg      :      0.96s CPU      1.03s WALL (      16 calls)

     Called by sum_band:

     Called by *egterg:
     cdiaghg      :      0.29s CPU      0.56s WALL (     260 calls)
     cegterg:over :      0.05s CPU      0.05s WALL (     244 calls)
     cegterg:upda :      0.02s CPU      0.02s WALL (     244 calls)
     cegterg:last :      0.01s CPU      0.01s WALL (      61 calls)
     cdiaghg:chol :      0.03s CPU      0.16s WALL (     260 calls)
     cdiaghg:inve :      0.00s CPU      0.00s WALL (     260 calls)
     cdiaghg:para :      0.06s CPU      0.08s WALL (     520 calls)
     h_psi        :     29.09s CPU     30.34s WALL (   11546 calls)
     s_psi        :      0.46s CPU      0.47s WALL (   23216 calls)
     g_psi        :      0.00s CPU      0.00s WALL (     244 calls)

     Called by h_psi:
     h_psi:calbec :      0.51s CPU      0.53s WALL (   11546 calls)
     vloc_psi     :     26.66s CPU     27.81s WALL (   11546 calls)
     add_vuspsi   :      0.26s CPU      0.27s WALL (   11546 calls)
     vhpsi        :      1.57s CPU      1.63s WALL (   11546 calls)

     General routines
     calbec       :      1.08s CPU      1.13s WALL (   35146 calls)
     fft          :      0.14s CPU      0.29s WALL (     375 calls)
     ffts         :      0.01s CPU      0.01s WALL (      47 calls)
     fftw         :     24.66s CPU     25.75s WALL (  261542 calls)
     interpolate  :      0.02s CPU      0.03s WALL (      47 calls)
     davcio       :      0.21s CPU      0.24s WALL (   14210 calls)

     Parallel routines

     Hubbard U routines
     alloc_neigh  :      0.00s CPU      0.00s WALL (       2 calls)
     vhpsi        :      1.57s CPU      1.63s WALL (   11546 calls)

     PAW routines
     PAW_pot      :      0.04s CPU      0.04s WALL (       3 calls)

     init_vloc    :      0.08s CPU      0.08s WALL (       3 calls)
     init_us_1    :      0.17s CPU      0.17s WALL (       3 calls)
     newd         :      0.02s CPU      0.03s WALL (       3 calls)
     add_vuspsi   :      0.26s CPU      0.27s WALL (   11546 calls)

     PRINTING TIMING FROM HP ROUTINES:

     hp_setup_q   :      0.05s CPU      0.07s WALL (       2 calls)
     hp_init_q    :      0.01s CPU      0.02s WALL (       2 calls)
     hp_solve_lin :     37.60s CPU     39.13s WALL (       2 calls)
     hp_dvpsi_per :      0.00s CPU      0.00s WALL (      32 calls)
     hp_dnsq      :      0.06s CPU      0.07s WALL (      22 calls)
     hp_symdnsq   :      0.00s CPU      0.00s WALL (      22 calls)
     hp_dnstot_su :      0.00s CPU      0.00s WALL (       2 calls)
     hp_calc_chi  :      0.00s CPU      0.00s WALL (       2 calls)
     hp_postproc  :      0.00s CPU      0.00s WALL (       1 calls)
     hp_run_nscf  :      1.37s CPU      1.67s WALL (       1 calls)
     hp_postproc  :      0.00s CPU      0.00s WALL (       1 calls)
     hp_psymdvscf :      0.97s CPU      0.98s WALL (      22 calls)

     PRINTING TIMING FROM LR MODULE:

     sth_kernel   :     33.87s CPU     35.31s WALL (      22 calls)
     apply_dpot_b :      1.16s CPU      1.21s WALL (     320 calls)
     ortho        :      0.05s CPU      0.05s WALL (     352 calls)
     cgsolve      :     30.29s CPU     31.59s WALL (     352 calls)
     ch_psi       :     29.96s CPU     31.24s WALL (   11270 calls)
     incdrhoscf   :      1.39s CPU      1.47s WALL (     352 calls)
                                        0.00s GPU  (     352 calls)
     dv_of_drho   :      0.20s CPU      0.20s WALL (      22 calls)
     mix_pot      :      0.08s CPU      0.11s WALL (      22 calls)
     setup_dgc    :      0.05s CPU      0.06s WALL (       2 calls)
     setup_dmuxc  :      0.00s CPU      0.01s WALL (       2 calls)
     setup_nbnd_o :      0.00s CPU      0.00s WALL (       2 calls)
     lr_orthoUwfc :      0.01s CPU      0.02s WALL (       2 calls)
     cft_wave     :      1.05s CPU      1.09s WALL (   10240 calls)

     USPP ROUTINES:

     newdq        :      0.45s CPU      0.46s WALL (      22 calls)
     adddvscf     :      0.03s CPU      0.03s WALL (     320 calls)
     addusdbec    :      0.03s CPU      0.03s WALL (     352 calls)

     HP           :     39.57s CPU     41.59s WALL


   This run was terminated on:  11:33:30  29Nov2022

=------------------------------------------------------------------------------=
   JOB DONE.
=------------------------------------------------------------------------------=
