<UPF version="2.0.1"><PP_HEADER
element="Co"
z_valence="17.0"
/></UPF>
