<UPF version="2.0.1"><PP_HEADER
element="Li"
z_valence="1.0"
/></UPF>
