<UPF version="2.0.1"><PP_HEADER
element="O"
z_valence="6.0"
/></UPF>
