
     Program HP v.7.2 starts on 30Mar2023 at 14:59:26

     This program is part of the open-source Quantum ESPRESSO suite
     for quantum simulation of materials; please cite
         "P. Giannozzi et al., J. Phys.:Condens. Matter 21 395502 (2009);
         "P. Giannozzi et al., J. Phys.:Condens. Matter 29 465901 (2017);
         "P. Giannozzi et al., J. Chem. Phys. 152 154105 (2020);
          URL http://www.quantum-espresso.org",
     in publications or presentations arising from this work. More details at
     http://www.quantum-espresso.org/quote

     Parallel version (MPI), running on     8 processors

     MPI processes distributed on     1 nodes
     R & G space division:  proc/nbgrp/npool/nimage =       8
     2998 MiB available memory on the printing compute node when the environment starts


     =---------------------------------------------------------------------------=

           Calculation of Hubbard parameters using the HP code based on DFPT

               Please cite the following papers when using this program:

                 - HP code : Comput. Phys. Commun. 279, 108455 (2022).

                 - Theory  : Phys. Rev. B 98,  085127 (2018) and

                             Phys. Rev. B 103, 045141 (2021).

     =-----------------------------------------------------------------------------=

     Reading xml data from directory:

     out/aiida.save/
     file O.pbe-n-kjpaw_psl.0.1.UPF: wavefunction(s)  2P renormalized

     IMPORTANT: XC functional enforced from input :
     Exchange-correlation= PBE
                           (   1   4   3   4   0   0   0)
     Any further DFT definition will be discarded
     Please, verify this is what you really want


     Parallelization info
     --------------------
     sticks:   dense  smooth     PW     G-vecs:    dense   smooth      PW
     Min         114      57     18                 1702      603     107
     Max         115      58     19                 1704      604     108
     Sum         913     459    149                13621     4825     857

     Using Slab Decomposition


     Check: negative core charge=   -0.000026
     Reading collected, re-writing distributed wavefunctions


     bravais-lattice index     =             0
     lattice parameter (alat)  =        9.3705 (a.u.)
     unit-cell volume          =      217.1087 (a.u.)^3
     number of atoms/cell      =             4
     number of atomic types    =             3
     kinetic-energy cut-off    =         30.00 (Ry)
     charge density cut-off    =        240.00 (Ry)
     conv. thresh. for NSCF    =       1.0E-11
     conv. thresh. for chi     =       1.0E-03
     Input Hubbard parameters (in eV):
       V (  1,   1)  =   0.0000
       V (  1,   2)  =   0.0000
       V (  2,   1)  =   0.0000
       V (  2,   2)  =   0.0000
       V (  3,   3)  =   0.0000
       V (  4,   4)  =   0.0000

     celldm(1) =  9.37049  celldm(2) =  0.00000  celldm(3) =  0.00000
     celldm(4) =  0.00000  celldm(5) =  0.00000  celldm(6) =  0.00000

     crystal axes: (cart. coord. in units of alat)
               a(1) = (  0.2840 -0.1639  0.9447 )
               a(2) = (  0.0000  0.3279  0.9447 )
               a(3) = ( -0.2840 -0.1639  0.9447 )

     reciprocal axes: (cart. coord. in units 2 pi/alat)
               b(1) = (  1.7608 -1.0166  0.3528 )
               b(2) = (  0.0000  2.0333  0.3528 )
               b(3) = ( -1.7608 -1.0166  0.3528 )

     Atoms inside the unit cell (Cartesian axes):
     site n.  atom      mass           positions (alat units)
        1      Co     58.9332   tau(  1) = (  0.00000  0.00000  0.00000  )
        2      O      15.9994   tau(  2) = (  0.00000  0.00000  0.73827  )
        3      O      15.9994   tau(  3) = (  0.00000  0.00000  2.09573  )
        4      Li      6.9410   tau(  4) = (  0.00000  0.00000  1.41708  )

     List of  3 atoms which will be perturbed (one at a time):

        1      Co     58.9332   tau( 1) = (  0.00000  0.00000  0.00000  )
        2      O      15.9994   tau( 2) = (  0.00000  0.00000  0.73827  )
        3      O      15.9994   tau( 3) = (  0.00000  0.00000  2.09573  )

     =====================================================================

                          PERTURBED ATOM #    1

     site n.  atom      mass           positions (alat units)
        1      Co     58.9332   tau( 1) = (  0.00000  0.00000  0.00000  )

     =====================================================================

     The perturbed atom has a type which is unique!


     The grid of q-points ( 2, 2, 2)  (  6 q-points ) :
       N       xq(1)         xq(2)         xq(3)       wq
       1   0.000000000   0.000000000   0.000000000   0.125000000
       2   0.880423629   0.508312715  -0.176419028   0.250000000
       3   0.000000000  -1.016625429  -0.176420113   0.125000000
       4   0.880423629  -0.508312715  -0.352839140   0.250000000
       5   0.000000000   1.016625429  -0.352838055   0.125000000
       6   0.000000000   0.000000000  -0.529258168   0.125000000


     =-------------------------------------------------------------=

     Calculation for q #   1 = (   0.0000000   0.0000000   0.0000000 )

     =-------------------------------------------------------------=

                   WRITING LINEAR-RESPONSE SUMMARY:


     Number of symmetries in the small group of q, nsymq =  2
      + the symmetry q -> -q+G

     Symmetry matrices (and vectors of fractional translations if f/=0):

     isym =  1     identity

     cryst.   s( 1) = (     1          0          0      )
                      (     0          1          0      )
                      (     0          0          1      )

     cart.    s( 1) = (  1.0000000  0.0000000  0.0000000 )
                      (  0.0000000  1.0000000  0.0000000 )
                      (  0.0000000  0.0000000  1.0000000 )


     isym =  2     inv. 180 deg rotation - cart. axis [1,0,0]

     cryst.   s( 2) = (     0          0          1      )
                      (     0          1          0      )
                      (     1          0          0      )

     cart.    s( 2) = ( -1.0000000  0.0000000  0.0000000 )
                      (  0.0000000  1.0000000  0.0000000 )
                      (  0.0000000  0.0000000  1.0000000 )


     This transformation sends q -> -q+G

     isym =  3     identity

     cryst.   s( 3) = (     1          0          0      )
                      (     0          1          0      )
                      (     0          0          1      )

     cart.    s( 3) = (  1.0000000  0.0000000  0.0000000 )
                      (  0.0000000  1.0000000  0.0000000 )
                      (  0.0000000  0.0000000  1.0000000 )


     G cutoff =  533.7974  (   1703 G-vectors)     FFT grid: ( 48, 48, 48)
     G cutoff =  266.8987  (    604 G-vectors)  smooth grid: ( 36, 36, 36)

     Number of k (and k+q if q/=0) points =     6

                       cart. coord. (in units 2pi/alat)
        k (    1) = (   0.0000000   0.0000000   0.0000000), wk = 0.2500000
        k (    2) = (   0.8804236   0.5083127  -0.1764190), wk = 0.5000000
        k (    3) = (   0.0000000  -1.0166254  -0.1764201), wk = 0.2500000
        k (    4) = (   0.8804236  -0.5083127  -0.3528391), wk = 0.5000000
        k (    5) = (   0.0000000   1.0166254  -0.3528381), wk = 0.2500000
        k (    6) = (   0.0000000   0.0000000  -0.5292582), wk = 0.2500000

                       cryst. coord.
        k (    1) = (   0.0000000   0.0000000   0.0000000), wk = 0.2500000
        k (    2) = (   0.0000000   0.0000000  -0.5000000), wk = 0.5000000
        k (    3) = (  -0.0000000  -0.5000000  -0.0000000), wk = 0.2500000
        k (    4) = (  -0.0000000  -0.5000000  -0.5000000), wk = 0.5000000
        k (    5) = (  -0.5000000  -0.0000000  -0.5000000), wk = 0.2500000
        k (    6) = (  -0.5000000  -0.5000000  -0.5000000), wk = 0.2500000

     Atomic wfc used for the projector on the Hubbard manifold are orthogonalized

     Total time spent up to now is:
     HP           :      0.22s CPU      0.27s WALL

      =--------------------------------------------=
                 SOLVE THE LINEAR SYSTEM
      =--------------------------------------------=

      atom #  1   q point #   1   iter #   1
      chi:   1  -0.2631187563
      chi:   2   0.1251279232
      chi:   3   0.1250966853
      Average number of iter. to solve lin. system:   34.7
      Total CPU time :     0.6 s

      atom #  1   q point #   1   iter #   2
      chi:   1   0.1185340651   residue:    0.3816528214
      chi:   2  -0.0802761980   residue:    0.2054041212
      chi:   3  -0.0801516513   residue:    0.2052483367
      Average number of iter. to solve lin. system:   13.2
      Total CPU time :     0.9 s

      atom #  1   q point #   1   iter #   3
      chi:   1  -0.0910103699   residue:    0.2095444350
      chi:   2   0.0322975843   residue:    0.1125737823
      chi:   3   0.0323337912   residue:    0.1124854426
      Average number of iter. to solve lin. system:   12.5
      Total CPU time :     1.2 s

      atom #  1   q point #   1   iter #   4
      chi:   1  -0.0870145796   residue:    0.0039957903
      chi:   2   0.0302302929   residue:    0.0020672913
      chi:   3   0.0301999572   residue:    0.0021338340
      Average number of iter. to solve lin. system:   13.3
      Total CPU time :     1.4 s

      atom #  1   q point #   1   iter #   5
      chi:   1  -0.0845299777   residue:    0.0024846019
      chi:   2   0.0289862066   residue:    0.0012440864
      chi:   3   0.0290840342   residue:    0.0011159230
      Average number of iter. to solve lin. system:   14.3
      Total CPU time :     1.7 s

      atom #  1   q point #   1   iter #   6
      chi:   1  -0.0847285637   residue:    0.0001985860
      chi:   2   0.0292899786   residue:    0.0003037721
      chi:   3   0.0291417110   residue:    0.0000576767
      Average number of iter. to solve lin. system:   15.3
      Total CPU time :     1.9 s

      =--------------------------------------------=
             CONVERGENCE HAS BEEN REACHED
      =--------------------------------------------=


     =-------------------------------------------------------------=

     Calculation for q #   2 = (   0.8804236   0.5083127  -0.1764190 )

     =-------------------------------------------------------------=

     Performing NSCF calculation at all points k and k+q...
     Subspace diagonalization in iterative solution of the eigenvalue problem:
     a serial algorithm will be used


     Parallelization info
     --------------------
     sticks:   dense  smooth     PW     G-vecs:    dense   smooth      PW
     Min         114      57     22                 1702      603     147
     Max         115      58     23                 1704      604     149
     Sum         913     459    179                13621     4825    1183

     Using Slab Decomposition



     bravais-lattice index     =            0
     lattice parameter (alat)  =       9.3705  a.u.
     unit-cell volume          =     217.1087 (a.u.)^3
     number of atoms/cell      =            4
     number of atomic types    =            3
     number of electrons       =        32.00
     number of Kohn-Sham states=           16
     kinetic-energy cutoff     =      30.0000  Ry
     charge density cutoff     =     240.0000  Ry
     Exchange-correlation= PBE
                           (   1   4   3   4   0   0   0)
     Hubbard projectors: ortho-atomic

     Internal variables: lda_plus_u = T, lda_plus_u_kind = 2

     celldm(1)=   9.370493  celldm(2)=   0.000000  celldm(3)=   0.000000
     celldm(4)=   0.000000  celldm(5)=   0.000000  celldm(6)=   0.000000

     crystal axes: (cart. coord. in units of alat)
               a(1) = (   0.283954  -0.163942   0.944719 )
               a(2) = (   0.000000   0.327881   0.944719 )
               a(3) = (  -0.283954  -0.163942   0.944719 )

     reciprocal axes: (cart. coord. in units 2 pi/alat)
               b(1) = (  1.760847 -1.016625  0.352838 )
               b(2) = (  0.000000  2.033251  0.352840 )
               b(3) = ( -1.760847 -1.016625  0.352838 )


     PseudoPot. # 1 for Co read from file:
     ~/Pseudos/SSSP/Co_pbe_v1.2.uspp.F.UPF
     MD5 check sum: Not computed, couldn't open file
     Pseudo is Ultrasoft + core correction, Zval = 17.0
     Generated by new atomic code, or converted to UPF format
     Using radial grid of  863 points,  6 beta functions with:
                l(1) =   0
                l(2) =   0
                l(3) =   1
                l(4) =   1
                l(5) =   2
                l(6) =   2
     Q(r) pseudized with  8 coefficients,  rinner =    1.200   1.200   1.200
                                                       1.200   1.200

     PseudoPot. # 2 for Li read from file:
     ~/Pseudos/SSSP/li_pbe_v1.4.uspp.F.UPF
     MD5 check sum: Not computed, couldn't open file
     Pseudo is Ultrasoft, Zval =  3.0
     Generated by new atomic code, or converted to UPF format
     Using radial grid of  751 points,  5 beta functions with:
                l(1) =   0
                l(2) =   0
                l(3) =   0
                l(4) =   1
                l(5) =   1
     Q(r) pseudized with 10 coefficients,  rinner =    1.150   1.150   1.150


     PseudoPot. # 3 for O  read from file:
     ~/Pseudos/SSSP/O.pbe-n-kjpaw_psl.0.1.UPF
     MD5 check sum: Not computed, couldn't open file
     Pseudo is Projector augmented-wave + core cor, Zval =  6.0
     Generated using "atomic" code by A. Dal Corso  v.5.0.99 svn rev. 10869
     Shape of augmentation charge: BESSEL
     Using radial grid of 1095 points,  4 beta functions with:
                l(1) =   0
                l(2) =   0
                l(3) =   1
                l(4) =   1
     Q(r) pseudized with 0 coefficients


     atomic species   valence    mass     pseudopotential
        Co            17.00    58.93319     Co( 1.00)
        Li             3.00     6.94100     Li( 1.00)
        O              6.00    15.99940     O ( 1.00)

      2 Sym. Ops. (no inversion) found



   Cartesian axes

     site n.     atom                  positions (alat units)
         1           Co  tau(   1) = (   0.0000000   0.0000000   0.0000000  )
         2           O   tau(   2) = (   0.0000000   0.0000000   0.7382652  )
         3           O   tau(   3) = (   0.0000000   0.0000000   2.0957311  )
         4           Li  tau(   4) = (   0.0000000   0.0000000   1.4170788  )

     number of k points=    16
                       cart. coord. in units 2pi/alat
        k(    1) = (   0.0000000   0.0000000   0.0000000), wk =   0.2500000
        k(    2) = (   0.8804236   0.5083127  -0.1764190), wk =   0.0000000
        k(    3) = (   0.8804236   0.5083127  -0.1764190), wk =   0.2500000
        k(    4) = (   1.7608473   1.0166254  -0.3528381), wk =   0.0000000
        k(    5) = (   0.0000000  -1.0166254  -0.1764201), wk =   0.2500000
        k(    6) = (   0.8804236  -0.5083127  -0.3528391), wk =   0.0000000
        k(    7) = (   0.8804236  -0.5083127  -0.3528391), wk =   0.2500000
        k(    8) = (   1.7608473   0.0000000  -0.5292582), wk =   0.0000000
        k(    9) = (   0.0000000   1.0166254  -0.3528381), wk =   0.2500000
        k(   10) = (   0.8804236   1.5249381  -0.5292571), wk =   0.0000000
        k(   11) = (   0.0000000   0.0000000  -0.5292582), wk =   0.2500000
        k(   12) = (   0.8804236   0.5083127  -0.7056772), wk =   0.0000000
        k(   13) = (  -0.8804236   0.5083127  -0.1764190), wk =   0.2500000
        k(   14) = (   0.0000000   1.0166254  -0.3528381), wk =   0.0000000
        k(   15) = (  -0.8804236  -0.5083127  -0.3528391), wk =   0.2500000
        k(   16) = (   0.0000000   0.0000000  -0.5292582), wk =   0.0000000

     Dense  grid:    13621 G-vectors     FFT dimensions: (  48,  48,  48)

     Smooth grid:     4825 G-vectors     FFT dimensions: (  36,  36,  36)

     Estimated max dynamical RAM per process >      10.10 MB

     Estimated total dynamical RAM >      80.83 MB

     Check: negative core charge=   -0.000026

     The potential is recalculated from file :
     out/HP/aiida.save/charge-density


     STARTING HUBBARD OCCUPATIONS:

     =================== HUBBARD OCCUPATIONS ===================
     ------------------------ ATOM    1 ------------------------
     Tr[ns(  1)] =   7.45274
     eigenvalues:
       0.409  0.409  0.969  0.969  0.970
     eigenvectors (columns):
      -0.000 -0.000 -0.000 -0.000 -1.000
       0.000  0.805 -0.000 -0.594  0.000
      -0.805  0.000 -0.594  0.000  0.000
      -0.594  0.000  0.805 -0.000 -0.000
       0.000  0.594  0.000  0.805 -0.000
     occupation matrix ns (before diag.):
       0.970 -0.000 -0.000 -0.000  0.000
      -0.000  0.607 -0.000  0.000 -0.267
      -0.000 -0.000  0.607 -0.267  0.000
      -0.000  0.000 -0.267  0.772 -0.000
       0.000 -0.267  0.000 -0.000  0.772
     ------------------------ ATOM    2 ------------------------
     Tr[ns(  2)] =   4.70394
     eigenvalues:
       0.773  0.773  0.807
     eigenvectors (columns):
      -0.000 -0.000  1.000
       0.000 -1.000 -0.000
       1.000  0.000  0.000
     occupation matrix ns (before diag.):
       0.807 -0.000  0.000
      -0.000  0.773 -0.000
       0.000 -0.000  0.773
     ------------------------ ATOM    3 ------------------------
     Tr[ns(  3)] =   4.70382
     eigenvalues:
       0.773  0.773  0.807
     eigenvectors (columns):
      -0.000 -0.000  1.000
      -1.000  0.000 -0.000
      -0.000 -1.000 -0.000
     occupation matrix ns (before diag.):
       0.807 -0.000 -0.000
      -0.000  0.773 -0.000
      -0.000 -0.000  0.773

     Number of occupied Hubbard levels =   16.8605

     Atomic wfc used for Hubbard projectors are orthogonalized

     Starting wfcs are   26 atomic wfcs
     Checking if some PAW data can be deallocated...

     Band Structure Calculation
     Davidson diagonalization with overlap

     ethr =  1.00E-11,  avg # of iterations = 11.9

     total cpu time spent up to now is       -1.0 secs

     End of band structure calculation

          k = 0.0000 0.0000 0.0000 (   615 PWs)   bands (ev):

   -84.1656 -47.4184 -47.4184 -47.3791 -34.0915  -9.5070  -7.8021   3.7186
     5.6494   5.6494   8.5663   8.6422   8.6423   9.7572   9.7572  10.6804

          k = 0.8804 0.5083-0.1764 (   600 PWs)   bands (ev):

   -84.1576 -47.4809 -47.4347 -47.3695 -34.0542  -7.9373  -7.7896   3.5667
     5.0995   5.5364   5.8854   7.1548   7.3660   9.8286  10.4374  10.7925

          k = 0.8804 0.5083-0.1764 (   600 PWs)   bands (ev):

   -84.1576 -47.4809 -47.4347 -47.3695 -34.0542  -7.9373  -7.7896   3.5667
     5.0995   5.5364   5.8854   7.1548   7.3660   9.8286  10.4374  10.7925

          k = 1.7608 1.0166-0.3528 (   615 PWs)   bands (ev):

   -84.1656 -47.4184 -47.4184 -47.3791 -34.0915  -9.5070  -7.8021   3.7186
     5.6494   5.6494   8.5663   8.6422   8.6423   9.7572   9.7572  10.6804

          k = 0.0000-1.0166-0.1764 (   600 PWs)   bands (ev):

   -84.1576 -47.4809 -47.4347 -47.3695 -34.0542  -7.9373  -7.7896   3.5667
     5.0995   5.5364   5.8854   7.1549   7.3660   9.8286  10.4374  10.7925

          k = 0.8804-0.5083-0.3528 (   604 PWs)   bands (ev):

   -84.1579 -47.4865 -47.4369 -47.3662 -34.0545  -7.9090  -7.8084   3.4116
     4.3750   6.0339   6.5890   7.1037   7.2848   9.6103  10.4289  10.7568

          k = 0.8804-0.5083-0.3528 (   604 PWs)   bands (ev):

   -84.1579 -47.4865 -47.4369 -47.3662 -34.0545  -7.9090  -7.8084   3.4116
     4.3750   6.0339   6.5890   7.1037   7.2848   9.6103  10.4289  10.7568

          k = 1.7608 0.0000-0.5293 (   600 PWs)   bands (ev):

   -84.1576 -47.4809 -47.4347 -47.3695 -34.0542  -7.9373  -7.7896   3.5667
     5.0995   5.5364   5.8854   7.1549   7.3660   9.8286  10.4374  10.7925

          k = 0.0000 1.0166-0.3528 (   604 PWs)   bands (ev):

   -84.1579 -47.4865 -47.4369 -47.3662 -34.0545  -7.9090  -7.8084   3.4116
     4.3750   6.0339   6.5890   7.1037   7.2848   9.6103  10.4289  10.7568

          k = 0.8804 1.5249-0.5293 (   600 PWs)   bands (ev):

   -84.1576 -47.4809 -47.4347 -47.3695 -34.0542  -7.9373  -7.7896   3.5667
     5.0995   5.5364   5.8854   7.1548   7.3660   9.8286  10.4374  10.7925

          k = 0.0000 0.0000-0.5293 (   598 PWs)   bands (ev):

   -84.1652 -47.4145 -47.4145 -47.3777 -34.0906  -9.3737  -8.0154   4.7898
     5.6985   5.6985   6.9695   8.5972   8.5972   9.7796   9.7796  10.7983

          k = 0.8804 0.5083-0.7057 (   604 PWs)   bands (ev):

   -84.1579 -47.4865 -47.4369 -47.3662 -34.0545  -7.9090  -7.8084   3.4116
     4.3750   6.0339   6.5890   7.1037   7.2848   9.6103  10.4289  10.7568

          k =-0.8804 0.5083-0.1764 (   600 PWs)   bands (ev):

   -84.1576 -47.4809 -47.4347 -47.3695 -34.0542  -7.9373  -7.7896   3.5667
     5.0995   5.5364   5.8854   7.1548   7.3660   9.8286  10.4374  10.7925

          k = 0.0000 1.0166-0.3528 (   604 PWs)   bands (ev):

   -84.1579 -47.4865 -47.4369 -47.3662 -34.0545  -7.9090  -7.8084   3.4116
     4.3750   6.0339   6.5890   7.1037   7.2848   9.6103  10.4289  10.7568

          k =-0.8804-0.5083-0.3528 (   604 PWs)   bands (ev):

   -84.1579 -47.4865 -47.4369 -47.3662 -34.0545  -7.9090  -7.8084   3.4116
     4.3750   6.0339   6.5890   7.1037   7.2848   9.6103  10.4289  10.7568

          k = 0.0000 0.0000-0.5293 (   598 PWs)   bands (ev):

   -84.1652 -47.4145 -47.4145 -47.3777 -34.0906  -9.3737  -8.0154   4.7898
     5.6985   5.6985   6.9695   8.5972   8.5972   9.7796   9.7796  10.7983

     highest occupied level (ev):    10.7983

     Writing all to output data dir out/HP/aiida.save/
     Done!

                   WRITING LINEAR-RESPONSE SUMMARY:


     Number of symmetries in the small group of q, nsymq =  1
      + the symmetry q -> -q+G

     Symmetry matrices (and vectors of fractional translations if f/=0):

     isym =  1     identity

     cryst.   s( 1) = (     1          0          0      )
                      (     0          1          0      )
                      (     0          0          1      )

     cart.    s( 1) = (  1.0000000  0.0000000  0.0000000 )
                      (  0.0000000  1.0000000  0.0000000 )
                      (  0.0000000  0.0000000  1.0000000 )


     This transformation sends q -> -q+G

     isym =  2     identity

     cryst.   s( 2) = (     1          0          0      )
                      (     0          1          0      )
                      (     0          0          1      )

     cart.    s( 2) = (  1.0000000  0.0000000  0.0000000 )
                      (  0.0000000  1.0000000  0.0000000 )
                      (  0.0000000  0.0000000  1.0000000 )


     G cutoff =  533.7974  (   1703 G-vectors)     FFT grid: ( 48, 48, 48)
     G cutoff =  266.8987  (    604 G-vectors)  smooth grid: ( 36, 36, 36)

     Number of k (and k+q if q/=0) points =    16

                       cart. coord. (in units 2pi/alat)
        k (    1) = (   0.0000000   0.0000000   0.0000000), wk = 0.2500000
        k (    2) = (   0.8804236   0.5083127  -0.1764190), wk = 0.0000000
        k (    3) = (   0.8804236   0.5083127  -0.1764190), wk = 0.2500000
        k (    4) = (   1.7608473   1.0166254  -0.3528381), wk = 0.0000000
        k (    5) = (   0.0000000  -1.0166254  -0.1764201), wk = 0.2500000
        k (    6) = (   0.8804236  -0.5083127  -0.3528391), wk = 0.0000000
        k (    7) = (   0.8804236  -0.5083127  -0.3528391), wk = 0.2500000
        k (    8) = (   1.7608473   0.0000000  -0.5292582), wk = 0.0000000
        k (    9) = (   0.0000000   1.0166254  -0.3528381), wk = 0.2500000
        k (   10) = (   0.8804236   1.5249381  -0.5292571), wk = 0.0000000
        k (   11) = (   0.0000000   0.0000000  -0.5292582), wk = 0.2500000
        k (   12) = (   0.8804236   0.5083127  -0.7056772), wk = 0.0000000
        k (   13) = (  -0.8804236   0.5083127  -0.1764190), wk = 0.2500000
        k (   14) = (   0.0000000   1.0166254  -0.3528381), wk = 0.0000000
        k (   15) = (  -0.8804236  -0.5083127  -0.3528391), wk = 0.2500000
        k (   16) = (   0.0000000   0.0000000  -0.5292582), wk = 0.0000000

                       cryst. coord.
        k (    1) = (   0.0000000   0.0000000   0.0000000), wk = 0.2500000
        k (    2) = (   0.0000000   0.0000000  -0.5000000), wk = 0.0000000
        k (    3) = (   0.0000000   0.0000000  -0.5000000), wk = 0.2500000
        k (    4) = (   0.0000000   0.0000000  -1.0000000), wk = 0.0000000
        k (    5) = (   0.0000000  -0.5000000   0.0000000), wk = 0.2500000
        k (    6) = (  -0.0000000  -0.5000000  -0.5000000), wk = 0.0000000
        k (    7) = (  -0.0000000  -0.5000000  -0.5000000), wk = 0.2500000
        k (    8) = (  -0.0000000  -0.5000000  -1.0000000), wk = 0.0000000
        k (    9) = (  -0.5000000   0.0000000  -0.5000000), wk = 0.2500000
        k (   10) = (  -0.5000000   0.0000000  -1.0000000), wk = 0.0000000
        k (   11) = (  -0.5000000  -0.5000000  -0.5000000), wk = 0.2500000
        k (   12) = (  -0.5000000  -0.5000000  -1.0000000), wk = 0.0000000
        k (   13) = (  -0.5000000   0.0000000   0.0000000), wk = 0.2500000
        k (   14) = (  -0.5000000   0.0000000  -0.5000000), wk = 0.0000000
        k (   15) = (  -0.5000000  -0.5000000  -0.0000000), wk = 0.2500000
        k (   16) = (  -0.5000000  -0.5000000  -0.5000000), wk = 0.0000000

     Atomic wfc used for the projector on the Hubbard manifold are orthogonalized

     Total time spent up to now is:
     HP           :      1.93s CPU      2.51s WALL

      =--------------------------------------------=
                 SOLVE THE LINEAR SYSTEM
      =--------------------------------------------=

      atom #  1   q point #   2   iter #   1
      chi:   1  -0.5283845257
      chi:   2   0.0211229491
      chi:   3  -0.0210968433
      Average number of iter. to solve lin. system:   37.4
      Total CPU time :     3.0 s

      atom #  1   q point #   2   iter #   2
      chi:   1   1.0456649797   residue:    1.5740495054
      chi:   2  -0.0103672310   residue:    0.0314901801
      chi:   3   0.0102752607   residue:    0.0313721040
      Average number of iter. to solve lin. system:   15.2
      Total CPU time :     3.3 s

      atom #  1   q point #   2   iter #   3
      chi:   1  -0.1159369233   residue:    1.1616019031
      chi:   2   0.0069900167   residue:    0.0173572477
      chi:   3  -0.0070348664   residue:    0.0173101271
      Average number of iter. to solve lin. system:   13.4
      Total CPU time :     3.6 s

      atom #  1   q point #   2   iter #   4
      chi:   1  -0.1119434707   residue:    0.0039934526
      chi:   2   0.0081045045   residue:    0.0011144878
      chi:   3  -0.0080681195   residue:    0.0010332531
      Average number of iter. to solve lin. system:   14.1
      Total CPU time :     3.9 s

      atom #  1   q point #   2   iter #   5
      chi:   1  -0.1028577001   residue:    0.0090857706
      chi:   2   0.0074898563   residue:    0.0006146482
      chi:   3  -0.0075385644   residue:    0.0005295550
      Average number of iter. to solve lin. system:   14.1
      Total CPU time :     4.2 s

      atom #  1   q point #   2   iter #   6
      chi:   1  -0.1002633098   residue:    0.0025943903
      chi:   2   0.0075934066   residue:    0.0001035503
      chi:   3  -0.0075543296   residue:    0.0000157651
      Average number of iter. to solve lin. system:   16.8
      Total CPU time :     4.5 s

      atom #  1   q point #   2   iter #   7
      chi:   1  -0.1011236472   residue:    0.0008603374
      chi:   2   0.0075238689   residue:    0.0000695377
      chi:   3  -0.0075793445   residue:    0.0000250149
      Average number of iter. to solve lin. system:   15.1
      Total CPU time :     4.8 s

      =--------------------------------------------=
             CONVERGENCE HAS BEEN REACHED
      =--------------------------------------------=


     =-------------------------------------------------------------=

     Calculation for q #   3 = (   0.0000000  -1.0166254  -0.1764201 )

     =-------------------------------------------------------------=

     Performing NSCF calculation at all points k and k+q...

     Parallelization info
     --------------------
     sticks:   dense  smooth     PW     G-vecs:    dense   smooth      PW
     Min         114      57     22                 1702      603     147
     Max         115      58     23                 1704      604     149
     Sum         913     459    179                13621     4825    1183

     Using Slab Decomposition



     bravais-lattice index     =            0
     lattice parameter (alat)  =       9.3705  a.u.
     unit-cell volume          =     217.1087 (a.u.)^3
     number of atoms/cell      =            4
     number of atomic types    =            3
     number of electrons       =        32.00
     number of Kohn-Sham states=           16
     kinetic-energy cutoff     =      30.0000  Ry
     charge density cutoff     =     240.0000  Ry
     Exchange-correlation= PBE
                           (   1   4   3   4   0   0   0)
     Hubbard projectors: ortho-atomic

     Internal variables: lda_plus_u = T, lda_plus_u_kind = 2

     celldm(1)=   9.370493  celldm(2)=   0.000000  celldm(3)=   0.000000
     celldm(4)=   0.000000  celldm(5)=   0.000000  celldm(6)=   0.000000

     crystal axes: (cart. coord. in units of alat)
               a(1) = (   0.283954  -0.163942   0.944719 )
               a(2) = (   0.000000   0.327881   0.944719 )
               a(3) = (  -0.283954  -0.163942   0.944719 )

     reciprocal axes: (cart. coord. in units 2 pi/alat)
               b(1) = (  1.760847 -1.016625  0.352838 )
               b(2) = (  0.000000  2.033251  0.352840 )
               b(3) = ( -1.760847 -1.016625  0.352838 )


     PseudoPot. # 1 for Co read from file:
     ~/Pseudos/SSSP/Co_pbe_v1.2.uspp.F.UPF
     MD5 check sum: Not computed, couldn't open file
     Pseudo is Ultrasoft + core correction, Zval = 17.0
     Generated by new atomic code, or converted to UPF format
     Using radial grid of  863 points,  6 beta functions with:
                l(1) =   0
                l(2) =   0
                l(3) =   1
                l(4) =   1
                l(5) =   2
                l(6) =   2
     Q(r) pseudized with  8 coefficients,  rinner =    1.200   1.200   1.200
                                                       1.200   1.200

     PseudoPot. # 2 for Li read from file:
     ~/Pseudos/SSSP/li_pbe_v1.4.uspp.F.UPF
     MD5 check sum: Not computed, couldn't open file
     Pseudo is Ultrasoft, Zval =  3.0
     Generated by new atomic code, or converted to UPF format
     Using radial grid of  751 points,  5 beta functions with:
                l(1) =   0
                l(2) =   0
                l(3) =   0
                l(4) =   1
                l(5) =   1
     Q(r) pseudized with 10 coefficients,  rinner =    1.150   1.150   1.150


     PseudoPot. # 3 for O  read from file:
     ~/Pseudos/SSSP/O.pbe-n-kjpaw_psl.0.1.UPF
     MD5 check sum: Not computed, couldn't open file
     Pseudo is Projector augmented-wave + core cor, Zval =  6.0
     Generated using "atomic" code by A. Dal Corso  v.5.0.99 svn rev. 10869
     Shape of augmentation charge: BESSEL
     Using radial grid of 1095 points,  4 beta functions with:
                l(1) =   0
                l(2) =   0
                l(3) =   1
                l(4) =   1
     Q(r) pseudized with 0 coefficients


     atomic species   valence    mass     pseudopotential
        Co            17.00    58.93319     Co( 1.00)
        Li             3.00     6.94100     Li( 1.00)
        O              6.00    15.99940     O ( 1.00)

      2 Sym. Ops. (no inversion) found



   Cartesian axes

     site n.     atom                  positions (alat units)
         1           Co  tau(   1) = (   0.0000000   0.0000000   0.0000000  )
         2           O   tau(   2) = (   0.0000000   0.0000000   0.7382652  )
         3           O   tau(   3) = (   0.0000000   0.0000000   2.0957311  )
         4           Li  tau(   4) = (   0.0000000   0.0000000   1.4170788  )

     number of k points=    12
                       cart. coord. in units 2pi/alat
        k(    1) = (   0.0000000   0.0000000   0.0000000), wk =   0.2500000
        k(    2) = (   0.0000000  -1.0166254  -0.1764201), wk =   0.0000000
        k(    3) = (   0.8804236   0.5083127  -0.1764190), wk =   0.5000000
        k(    4) = (   0.8804236  -0.5083127  -0.3528391), wk =   0.0000000
        k(    5) = (   0.0000000  -1.0166254  -0.1764201), wk =   0.2500000
        k(    6) = (   0.0000000  -2.0332509  -0.3528402), wk =   0.0000000
        k(    7) = (   0.8804236  -0.5083127  -0.3528391), wk =   0.5000000
        k(    8) = (   0.8804236  -1.5249381  -0.5292593), wk =   0.0000000
        k(    9) = (   0.0000000   1.0166254  -0.3528381), wk =   0.2500000
        k(   10) = (   0.0000000   0.0000000  -0.5292582), wk =   0.0000000
        k(   11) = (   0.0000000   0.0000000  -0.5292582), wk =   0.2500000
        k(   12) = (   0.0000000  -1.0166254  -0.7056783), wk =   0.0000000

     Dense  grid:    13621 G-vectors     FFT dimensions: (  48,  48,  48)

     Smooth grid:     4825 G-vectors     FFT dimensions: (  36,  36,  36)

     Estimated max dynamical RAM per process >      10.10 MB

     Estimated total dynamical RAM >      80.83 MB

     Check: negative core charge=   -0.000026

     The potential is recalculated from file :
     out/HP/aiida.save/charge-density


     STARTING HUBBARD OCCUPATIONS:

     =================== HUBBARD OCCUPATIONS ===================
     ------------------------ ATOM    1 ------------------------
     Tr[ns(  1)] =   7.45274
     eigenvalues:
       0.409  0.409  0.969  0.969  0.970
     eigenvectors (columns):
      -0.000 -0.000 -0.000 -0.000 -1.000
       0.000  0.805 -0.000 -0.594  0.000
      -0.805  0.000 -0.594  0.000  0.000
      -0.594  0.000  0.805 -0.000 -0.000
       0.000  0.594  0.000  0.805 -0.000
     occupation matrix ns (before diag.):
       0.970 -0.000 -0.000 -0.000  0.000
      -0.000  0.607 -0.000  0.000 -0.267
      -0.000 -0.000  0.607 -0.267  0.000
      -0.000  0.000 -0.267  0.772 -0.000
       0.000 -0.267  0.000 -0.000  0.772
     ------------------------ ATOM    2 ------------------------
     Tr[ns(  2)] =   4.70394
     eigenvalues:
       0.773  0.773  0.807
     eigenvectors (columns):
      -0.000 -0.000  1.000
       0.000 -1.000 -0.000
       1.000  0.000  0.000
     occupation matrix ns (before diag.):
       0.807 -0.000  0.000
      -0.000  0.773 -0.000
       0.000 -0.000  0.773
     ------------------------ ATOM    3 ------------------------
     Tr[ns(  3)] =   4.70382
     eigenvalues:
       0.773  0.773  0.807
     eigenvectors (columns):
      -0.000 -0.000  1.000
      -1.000  0.000 -0.000
      -0.000 -1.000 -0.000
     occupation matrix ns (before diag.):
       0.807 -0.000 -0.000
      -0.000  0.773 -0.000
      -0.000 -0.000  0.773

     Number of occupied Hubbard levels =   16.8605

     Atomic wfc used for Hubbard projectors are orthogonalized

     Starting wfcs are   26 atomic wfcs
     Checking if some PAW data can be deallocated...

     Band Structure Calculation
     Davidson diagonalization with overlap

     ethr =  1.00E-11,  avg # of iterations = 11.8

     total cpu time spent up to now is       -1.0 secs

     End of band structure calculation

          k = 0.0000 0.0000 0.0000 (   615 PWs)   bands (ev):

   -84.1656 -47.4184 -47.4184 -47.3791 -34.0915  -9.5070  -7.8021   3.7186
     5.6494   5.6494   8.5663   8.6422   8.6423   9.7572   9.7572  10.6804

          k = 0.0000-1.0166-0.1764 (   600 PWs)   bands (ev):

   -84.1576 -47.4809 -47.4347 -47.3695 -34.0542  -7.9373  -7.7896   3.5667
     5.0995   5.5364   5.8854   7.1549   7.3660   9.8286  10.4374  10.7925

          k = 0.8804 0.5083-0.1764 (   600 PWs)   bands (ev):

   -84.1576 -47.4809 -47.4347 -47.3695 -34.0542  -7.9373  -7.7896   3.5667
     5.0995   5.5364   5.8854   7.1548   7.3660   9.8286  10.4374  10.7925

          k = 0.8804-0.5083-0.3528 (   604 PWs)   bands (ev):

   -84.1579 -47.4865 -47.4369 -47.3662 -34.0545  -7.9090  -7.8084   3.4116
     4.3750   6.0339   6.5890   7.1037   7.2848   9.6103  10.4289  10.7568

          k = 0.0000-1.0166-0.1764 (   600 PWs)   bands (ev):

   -84.1576 -47.4809 -47.4347 -47.3695 -34.0542  -7.9373  -7.7896   3.5667
     5.0995   5.5364   5.8854   7.1549   7.3660   9.8286  10.4374  10.7925

          k = 0.0000-2.0333-0.3528 (   615 PWs)   bands (ev):

   -84.1656 -47.4184 -47.4184 -47.3791 -34.0915  -9.5070  -7.8021   3.7186
     5.6494   5.6494   8.5663   8.6422   8.6423   9.7572   9.7572  10.6804

          k = 0.8804-0.5083-0.3528 (   604 PWs)   bands (ev):

   -84.1579 -47.4865 -47.4369 -47.3662 -34.0545  -7.9090  -7.8084   3.4116
     4.3750   6.0339   6.5890   7.1037   7.2848   9.6103  10.4289  10.7568

          k = 0.8804-1.5249-0.5293 (   600 PWs)   bands (ev):

   -84.1576 -47.4809 -47.4347 -47.3695 -34.0542  -7.9373  -7.7896   3.5667
     5.0995   5.5364   5.8854   7.1548   7.3660   9.8286  10.4374  10.7925

          k = 0.0000 1.0166-0.3528 (   604 PWs)   bands (ev):

   -84.1579 -47.4865 -47.4369 -47.3662 -34.0545  -7.9090  -7.8084   3.4116
     4.3750   6.0339   6.5890   7.1037   7.2848   9.6103  10.4289  10.7568

          k = 0.0000 0.0000-0.5293 (   598 PWs)   bands (ev):

   -84.1652 -47.4145 -47.4145 -47.3777 -34.0906  -9.3737  -8.0154   4.7898
     5.6985   5.6985   6.9695   8.5972   8.5972   9.7796   9.7796  10.7983

          k = 0.0000 0.0000-0.5293 (   598 PWs)   bands (ev):

   -84.1652 -47.4145 -47.4145 -47.3777 -34.0906  -9.3737  -8.0154   4.7898
     5.6985   5.6985   6.9695   8.5972   8.5972   9.7796   9.7796  10.7983

          k = 0.0000-1.0166-0.7057 (   604 PWs)   bands (ev):

   -84.1579 -47.4865 -47.4369 -47.3662 -34.0545  -7.9090  -7.8084   3.4116
     4.3750   6.0339   6.5890   7.1037   7.2848   9.6103  10.4289  10.7568

     highest occupied level (ev):    10.7983

     Writing all to output data dir out/HP/aiida.save/
     Done!

                   WRITING LINEAR-RESPONSE SUMMARY:


     Number of symmetries in the small group of q, nsymq =  2
      + the symmetry q -> -q+G

     Symmetry matrices (and vectors of fractional translations if f/=0):

     isym =  1     identity

     cryst.   s( 1) = (     1          0          0      )
                      (     0          1          0      )
                      (     0          0          1      )

     cart.    s( 1) = (  1.0000000  0.0000000  0.0000000 )
                      (  0.0000000  1.0000000  0.0000000 )
                      (  0.0000000  0.0000000  1.0000000 )


     isym =  2     inv. 180 deg rotation - cart. axis [1,0,0]

     cryst.   s( 2) = (     0          0          1      )
                      (     0          1          0      )
                      (     1          0          0      )

     cart.    s( 2) = ( -1.0000000  0.0000000  0.0000000 )
                      (  0.0000000  1.0000000  0.0000000 )
                      (  0.0000000  0.0000000  1.0000000 )


     This transformation sends q -> -q+G

     isym =  3     identity

     cryst.   s( 3) = (     1          0          0      )
                      (     0          1          0      )
                      (     0          0          1      )

     cart.    s( 3) = (  1.0000000  0.0000000  0.0000000 )
                      (  0.0000000  1.0000000  0.0000000 )
                      (  0.0000000  0.0000000  1.0000000 )


     G cutoff =  533.7974  (   1703 G-vectors)     FFT grid: ( 48, 48, 48)
     G cutoff =  266.8987  (    604 G-vectors)  smooth grid: ( 36, 36, 36)

     Number of k (and k+q if q/=0) points =    12

                       cart. coord. (in units 2pi/alat)
        k (    1) = (   0.0000000   0.0000000   0.0000000), wk = 0.2500000
        k (    2) = (   0.0000000  -1.0166254  -0.1764201), wk = 0.0000000
        k (    3) = (   0.8804236   0.5083127  -0.1764190), wk = 0.5000000
        k (    4) = (   0.8804236  -0.5083127  -0.3528391), wk = 0.0000000
        k (    5) = (   0.0000000  -1.0166254  -0.1764201), wk = 0.2500000
        k (    6) = (   0.0000000  -2.0332509  -0.3528402), wk = 0.0000000
        k (    7) = (   0.8804236  -0.5083127  -0.3528391), wk = 0.5000000
        k (    8) = (   0.8804236  -1.5249381  -0.5292593), wk = 0.0000000
        k (    9) = (   0.0000000   1.0166254  -0.3528381), wk = 0.2500000
        k (   10) = (   0.0000000   0.0000000  -0.5292582), wk = 0.0000000
        k (   11) = (   0.0000000   0.0000000  -0.5292582), wk = 0.2500000
        k (   12) = (   0.0000000  -1.0166254  -0.7056783), wk = 0.0000000

                       cryst. coord.
        k (    1) = (   0.0000000   0.0000000   0.0000000), wk = 0.2500000
        k (    2) = (   0.0000000  -0.5000000   0.0000000), wk = 0.0000000
        k (    3) = (   0.0000000   0.0000000  -0.5000000), wk = 0.5000000
        k (    4) = (  -0.0000000  -0.5000000  -0.5000000), wk = 0.0000000
        k (    5) = (   0.0000000  -0.5000000   0.0000000), wk = 0.2500000
        k (    6) = (   0.0000000  -1.0000000   0.0000000), wk = 0.0000000
        k (    7) = (  -0.0000000  -0.5000000  -0.5000000), wk = 0.5000000
        k (    8) = (   0.0000000  -1.0000000  -0.5000000), wk = 0.0000000
        k (    9) = (  -0.5000000   0.0000000  -0.5000000), wk = 0.2500000
        k (   10) = (  -0.5000000  -0.5000000  -0.5000000), wk = 0.0000000
        k (   11) = (  -0.5000000  -0.5000000  -0.5000000), wk = 0.2500000
        k (   12) = (  -0.5000000  -1.0000000  -0.5000000), wk = 0.0000000

     Atomic wfc used for the projector on the Hubbard manifold are orthogonalized

     Total time spent up to now is:
     HP           :      4.17s CPU      5.29s WALL

      =--------------------------------------------=
                 SOLVE THE LINEAR SYSTEM
      =--------------------------------------------=

      atom #  1   q point #   3   iter #   1
      chi:   1  -0.5283832611
      chi:   2   0.0211228008
      chi:   3  -0.0210959411
      Average number of iter. to solve lin. system:   35.5
      Total CPU time :     5.7 s

      atom #  1   q point #   3   iter #   2
      chi:   1   1.0456586805   residue:    1.5740419416
      chi:   2  -0.0103664214   residue:    0.0314892222
      chi:   3   0.0102656552   residue:    0.0313615964
      Average number of iter. to solve lin. system:   14.3
      Total CPU time :     6.0 s

      atom #  1   q point #   3   iter #   3
      chi:   1  -0.1159352369   residue:    1.1615939174
      chi:   2   0.0069743680   residue:    0.0173407894
      chi:   3  -0.0070379693   residue:    0.0173036245
      Average number of iter. to solve lin. system:   12.7
      Total CPU time :     6.2 s

      atom #  1   q point #   3   iter #   4
      chi:   1  -0.1119476428   residue:    0.0039875941
      chi:   2   0.0081196587   residue:    0.0011452907
      chi:   3  -0.0080635708   residue:    0.0010256016
      Average number of iter. to solve lin. system:   13.7
      Total CPU time :     6.5 s

      atom #  1   q point #   3   iter #   5
      chi:   1  -0.1028886605   residue:    0.0090589823
      chi:   2   0.0074773543   residue:    0.0006423044
      chi:   3  -0.0075493189   residue:    0.0005142520
      Average number of iter. to solve lin. system:   13.7
      Total CPU time :     6.8 s

      atom #  1   q point #   3   iter #   6
      chi:   1  -0.1002637959   residue:    0.0026248646
      chi:   2   0.0076034079   residue:    0.0001260536
      chi:   3  -0.0075419935   residue:    0.0000073253
      Average number of iter. to solve lin. system:   16.2
      Total CPU time :     7.0 s

      atom #  1   q point #   3   iter #   7
      chi:   1  -0.1010764236   residue:    0.0008126277
      chi:   2   0.0075159141   residue:    0.0000874939
      chi:   3  -0.0075925644   residue:    0.0000505709
      Average number of iter. to solve lin. system:   15.0
      Total CPU time :     7.3 s

      =--------------------------------------------=
             CONVERGENCE HAS BEEN REACHED
      =--------------------------------------------=


     =-------------------------------------------------------------=

     Calculation for q #   4 = (   0.8804236  -0.5083127  -0.3528391 )

     =-------------------------------------------------------------=

     Performing NSCF calculation at all points k and k+q...

     Parallelization info
     --------------------
     sticks:   dense  smooth     PW     G-vecs:    dense   smooth      PW
     Min         114      57     22                 1702      603     152
     Max         115      58     23                 1704      604     153
     Sum         913     459    179                13621     4825    1219

     Using Slab Decomposition



     bravais-lattice index     =            0
     lattice parameter (alat)  =       9.3705  a.u.
     unit-cell volume          =     217.1087 (a.u.)^3
     number of atoms/cell      =            4
     number of atomic types    =            3
     number of electrons       =        32.00
     number of Kohn-Sham states=           16
     kinetic-energy cutoff     =      30.0000  Ry
     charge density cutoff     =     240.0000  Ry
     Exchange-correlation= PBE
                           (   1   4   3   4   0   0   0)
     Hubbard projectors: ortho-atomic

     Internal variables: lda_plus_u = T, lda_plus_u_kind = 2

     celldm(1)=   9.370493  celldm(2)=   0.000000  celldm(3)=   0.000000
     celldm(4)=   0.000000  celldm(5)=   0.000000  celldm(6)=   0.000000

     crystal axes: (cart. coord. in units of alat)
               a(1) = (   0.283954  -0.163942   0.944719 )
               a(2) = (   0.000000   0.327881   0.944719 )
               a(3) = (  -0.283954  -0.163942   0.944719 )

     reciprocal axes: (cart. coord. in units 2 pi/alat)
               b(1) = (  1.760847 -1.016625  0.352838 )
               b(2) = (  0.000000  2.033251  0.352840 )
               b(3) = ( -1.760847 -1.016625  0.352838 )


     PseudoPot. # 1 for Co read from file:
     ~/Pseudos/SSSP/Co_pbe_v1.2.uspp.F.UPF
     MD5 check sum: Not computed, couldn't open file
     Pseudo is Ultrasoft + core correction, Zval = 17.0
     Generated by new atomic code, or converted to UPF format
     Using radial grid of  863 points,  6 beta functions with:
                l(1) =   0
                l(2) =   0
                l(3) =   1
                l(4) =   1
                l(5) =   2
                l(6) =   2
     Q(r) pseudized with  8 coefficients,  rinner =    1.200   1.200   1.200
                                                       1.200   1.200

     PseudoPot. # 2 for Li read from file:
     ~/Pseudos/SSSP/li_pbe_v1.4.uspp.F.UPF
     MD5 check sum: Not computed, couldn't open file
     Pseudo is Ultrasoft, Zval =  3.0
     Generated by new atomic code, or converted to UPF format
     Using radial grid of  751 points,  5 beta functions with:
                l(1) =   0
                l(2) =   0
                l(3) =   0
                l(4) =   1
                l(5) =   1
     Q(r) pseudized with 10 coefficients,  rinner =    1.150   1.150   1.150


     PseudoPot. # 3 for O  read from file:
     ~/Pseudos/SSSP/O.pbe-n-kjpaw_psl.0.1.UPF
     MD5 check sum: Not computed, couldn't open file
     Pseudo is Projector augmented-wave + core cor, Zval =  6.0
     Generated using "atomic" code by A. Dal Corso  v.5.0.99 svn rev. 10869
     Shape of augmentation charge: BESSEL
     Using radial grid of 1095 points,  4 beta functions with:
                l(1) =   0
                l(2) =   0
                l(3) =   1
                l(4) =   1
     Q(r) pseudized with 0 coefficients


     atomic species   valence    mass     pseudopotential
        Co            17.00    58.93319     Co( 1.00)
        Li             3.00     6.94100     Li( 1.00)
        O              6.00    15.99940     O ( 1.00)

      2 Sym. Ops. (no inversion) found



   Cartesian axes

     site n.     atom                  positions (alat units)
         1           Co  tau(   1) = (   0.0000000   0.0000000   0.0000000  )
         2           O   tau(   2) = (   0.0000000   0.0000000   0.7382652  )
         3           O   tau(   3) = (   0.0000000   0.0000000   2.0957311  )
         4           Li  tau(   4) = (   0.0000000   0.0000000   1.4170788  )

     number of k points=    16
                       cart. coord. in units 2pi/alat
        k(    1) = (   0.0000000   0.0000000   0.0000000), wk =   0.2500000
        k(    2) = (   0.8804236  -0.5083127  -0.3528391), wk =   0.0000000
        k(    3) = (   0.8804236   0.5083127  -0.1764190), wk =   0.2500000
        k(    4) = (   1.7608473   0.0000000  -0.5292582), wk =   0.0000000
        k(    5) = (   0.0000000  -1.0166254  -0.1764201), wk =   0.2500000
        k(    6) = (   0.8804236  -1.5249381  -0.5292593), wk =   0.0000000
        k(    7) = (   0.8804236  -0.5083127  -0.3528391), wk =   0.2500000
        k(    8) = (   1.7608473  -1.0166254  -0.7056783), wk =   0.0000000
        k(    9) = (   0.0000000   1.0166254  -0.3528381), wk =   0.2500000
        k(   10) = (   0.8804236   0.5083127  -0.7056772), wk =   0.0000000
        k(   11) = (   0.0000000   0.0000000  -0.5292582), wk =   0.2500000
        k(   12) = (   0.8804236  -0.5083127  -0.8820973), wk =   0.0000000
        k(   13) = (  -0.8804236   0.5083127  -0.1764190), wk =   0.2500000
        k(   14) = (   0.0000000   0.0000000  -0.5292582), wk =   0.0000000
        k(   15) = (  -0.8804236  -0.5083127  -0.3528391), wk =   0.2500000
        k(   16) = (   0.0000000  -1.0166254  -0.7056783), wk =   0.0000000

     Dense  grid:    13621 G-vectors     FFT dimensions: (  48,  48,  48)

     Smooth grid:     4825 G-vectors     FFT dimensions: (  36,  36,  36)

     Estimated max dynamical RAM per process >      10.11 MB

     Estimated total dynamical RAM >      80.89 MB

     Check: negative core charge=   -0.000026

     The potential is recalculated from file :
     out/HP/aiida.save/charge-density


     STARTING HUBBARD OCCUPATIONS:

     =================== HUBBARD OCCUPATIONS ===================
     ------------------------ ATOM    1 ------------------------
     Tr[ns(  1)] =   7.45274
     eigenvalues:
       0.409  0.409  0.969  0.969  0.970
     eigenvectors (columns):
      -0.000 -0.000 -0.000 -0.000 -1.000
       0.000  0.805 -0.000 -0.594  0.000
      -0.805  0.000 -0.594  0.000  0.000
      -0.594  0.000  0.805 -0.000 -0.000
       0.000  0.594  0.000  0.805 -0.000
     occupation matrix ns (before diag.):
       0.970 -0.000 -0.000 -0.000  0.000
      -0.000  0.607 -0.000  0.000 -0.267
      -0.000 -0.000  0.607 -0.267  0.000
      -0.000  0.000 -0.267  0.772 -0.000
       0.000 -0.267  0.000 -0.000  0.772
     ------------------------ ATOM    2 ------------------------
     Tr[ns(  2)] =   4.70394
     eigenvalues:
       0.773  0.773  0.807
     eigenvectors (columns):
      -0.000 -0.000  1.000
       0.000 -1.000 -0.000
       1.000  0.000  0.000
     occupation matrix ns (before diag.):
       0.807 -0.000  0.000
      -0.000  0.773 -0.000
       0.000 -0.000  0.773
     ------------------------ ATOM    3 ------------------------
     Tr[ns(  3)] =   4.70382
     eigenvalues:
       0.773  0.773  0.807
     eigenvectors (columns):
      -0.000 -0.000  1.000
      -1.000  0.000 -0.000
      -0.000 -1.000 -0.000
     occupation matrix ns (before diag.):
       0.807 -0.000 -0.000
      -0.000  0.773 -0.000
      -0.000 -0.000  0.773

     Number of occupied Hubbard levels =   16.8605

     Atomic wfc used for Hubbard projectors are orthogonalized

     Starting wfcs are   26 atomic wfcs
     Checking if some PAW data can be deallocated...

     Band Structure Calculation
     Davidson diagonalization with overlap

     ethr =  1.00E-11,  avg # of iterations = 11.9

     total cpu time spent up to now is       -1.0 secs

     End of band structure calculation

          k = 0.0000 0.0000 0.0000 (   615 PWs)   bands (ev):

   -84.1656 -47.4184 -47.4184 -47.3791 -34.0915  -9.5070  -7.8021   3.7186
     5.6494   5.6494   8.5663   8.6422   8.6423   9.7572   9.7572  10.6804

          k = 0.8804-0.5083-0.3528 (   604 PWs)   bands (ev):

   -84.1579 -47.4865 -47.4369 -47.3662 -34.0545  -7.9090  -7.8084   3.4116
     4.3750   6.0339   6.5890   7.1037   7.2848   9.6103  10.4289  10.7568

          k = 0.8804 0.5083-0.1764 (   600 PWs)   bands (ev):

   -84.1576 -47.4809 -47.4347 -47.3695 -34.0542  -7.9373  -7.7896   3.5667
     5.0995   5.5364   5.8854   7.1548   7.3660   9.8286  10.4374  10.7925

          k = 1.7608 0.0000-0.5293 (   600 PWs)   bands (ev):

   -84.1576 -47.4809 -47.4347 -47.3695 -34.0542  -7.9373  -7.7896   3.5667
     5.0995   5.5364   5.8854   7.1549   7.3660   9.8286  10.4374  10.7925

          k = 0.0000-1.0166-0.1764 (   600 PWs)   bands (ev):

   -84.1576 -47.4809 -47.4347 -47.3695 -34.0542  -7.9373  -7.7896   3.5667
     5.0995   5.5364   5.8854   7.1549   7.3660   9.8286  10.4374  10.7925

          k = 0.8804-1.5249-0.5293 (   600 PWs)   bands (ev):

   -84.1576 -47.4809 -47.4347 -47.3695 -34.0542  -7.9373  -7.7896   3.5667
     5.0995   5.5364   5.8854   7.1548   7.3660   9.8286  10.4374  10.7925

          k = 0.8804-0.5083-0.3528 (   604 PWs)   bands (ev):

   -84.1579 -47.4865 -47.4369 -47.3662 -34.0545  -7.9090  -7.8084   3.4116
     4.3750   6.0339   6.5890   7.1037   7.2848   9.6103  10.4289  10.7568

          k = 1.7608-1.0166-0.7057 (   615 PWs)   bands (ev):

   -84.1656 -47.4184 -47.4184 -47.3791 -34.0915  -9.5070  -7.8021   3.7186
     5.6494   5.6494   8.5663   8.6422   8.6423   9.7572   9.7572  10.6804

          k = 0.0000 1.0166-0.3528 (   604 PWs)   bands (ev):

   -84.1579 -47.4865 -47.4369 -47.3662 -34.0545  -7.9090  -7.8084   3.4116
     4.3750   6.0339   6.5890   7.1037   7.2848   9.6103  10.4289  10.7569

          k = 0.8804 0.5083-0.7057 (   604 PWs)   bands (ev):

   -84.1579 -47.4865 -47.4369 -47.3662 -34.0545  -7.9090  -7.8084   3.4116
     4.3750   6.0339   6.5890   7.1037   7.2848   9.6103  10.4289  10.7568

          k = 0.0000 0.0000-0.5293 (   598 PWs)   bands (ev):

   -84.1652 -47.4145 -47.4145 -47.3777 -34.0906  -9.3737  -8.0154   4.7898
     5.6985   5.6985   6.9695   8.5972   8.5972   9.7796   9.7796  10.7983

          k = 0.8804-0.5083-0.8821 (   600 PWs)   bands (ev):

   -84.1576 -47.4809 -47.4347 -47.3695 -34.0542  -7.9373  -7.7896   3.5667
     5.0995   5.5364   5.8854   7.1548   7.3660   9.8286  10.4374  10.7925

          k =-0.8804 0.5083-0.1764 (   600 PWs)   bands (ev):

   -84.1576 -47.4809 -47.4347 -47.3695 -34.0542  -7.9373  -7.7896   3.5667
     5.0995   5.5364   5.8854   7.1548   7.3660   9.8286  10.4374  10.7925

          k = 0.0000 0.0000-0.5293 (   598 PWs)   bands (ev):

   -84.1652 -47.4145 -47.4145 -47.3777 -34.0906  -9.3737  -8.0154   4.7898
     5.6985   5.6985   6.9695   8.5972   8.5972   9.7796   9.7796  10.7983

          k =-0.8804-0.5083-0.3528 (   604 PWs)   bands (ev):

   -84.1579 -47.4865 -47.4369 -47.3662 -34.0545  -7.9090  -7.8084   3.4116
     4.3750   6.0339   6.5890   7.1037   7.2848   9.6103  10.4289  10.7568

          k = 0.0000-1.0166-0.7057 (   604 PWs)   bands (ev):

   -84.1579 -47.4865 -47.4369 -47.3662 -34.0545  -7.9090  -7.8084   3.4116
     4.3750   6.0339   6.5890   7.1037   7.2848   9.6103  10.4289  10.7569

     highest occupied level (ev):    10.7983

     Writing all to output data dir out/HP/aiida.save/
     Done!

                   WRITING LINEAR-RESPONSE SUMMARY:


     Number of symmetries in the small group of q, nsymq =  1
      + the symmetry q -> -q+G

     Symmetry matrices (and vectors of fractional translations if f/=0):

     isym =  1     identity

     cryst.   s( 1) = (     1          0          0      )
                      (     0          1          0      )
                      (     0          0          1      )

     cart.    s( 1) = (  1.0000000  0.0000000  0.0000000 )
                      (  0.0000000  1.0000000  0.0000000 )
                      (  0.0000000  0.0000000  1.0000000 )


     This transformation sends q -> -q+G

     isym =  2     identity

     cryst.   s( 2) = (     1          0          0      )
                      (     0          1          0      )
                      (     0          0          1      )

     cart.    s( 2) = (  1.0000000  0.0000000  0.0000000 )
                      (  0.0000000  1.0000000  0.0000000 )
                      (  0.0000000  0.0000000  1.0000000 )


     G cutoff =  533.7974  (   1703 G-vectors)     FFT grid: ( 48, 48, 48)
     G cutoff =  266.8987  (    604 G-vectors)  smooth grid: ( 36, 36, 36)

     Number of k (and k+q if q/=0) points =    16

                       cart. coord. (in units 2pi/alat)
        k (    1) = (   0.0000000   0.0000000   0.0000000), wk = 0.2500000
        k (    2) = (   0.8804236  -0.5083127  -0.3528391), wk = 0.0000000
        k (    3) = (   0.8804236   0.5083127  -0.1764190), wk = 0.2500000
        k (    4) = (   1.7608473   0.0000000  -0.5292582), wk = 0.0000000
        k (    5) = (   0.0000000  -1.0166254  -0.1764201), wk = 0.2500000
        k (    6) = (   0.8804236  -1.5249381  -0.5292593), wk = 0.0000000
        k (    7) = (   0.8804236  -0.5083127  -0.3528391), wk = 0.2500000
        k (    8) = (   1.7608473  -1.0166254  -0.7056783), wk = 0.0000000
        k (    9) = (   0.0000000   1.0166254  -0.3528381), wk = 0.2500000
        k (   10) = (   0.8804236   0.5083127  -0.7056772), wk = 0.0000000
        k (   11) = (   0.0000000   0.0000000  -0.5292582), wk = 0.2500000
        k (   12) = (   0.8804236  -0.5083127  -0.8820973), wk = 0.0000000
        k (   13) = (  -0.8804236   0.5083127  -0.1764190), wk = 0.2500000
        k (   14) = (   0.0000000   0.0000000  -0.5292582), wk = 0.0000000
        k (   15) = (  -0.8804236  -0.5083127  -0.3528391), wk = 0.2500000
        k (   16) = (   0.0000000  -1.0166254  -0.7056783), wk = 0.0000000

                       cryst. coord.
        k (    1) = (   0.0000000   0.0000000   0.0000000), wk = 0.2500000
        k (    2) = (  -0.0000000  -0.5000000  -0.5000000), wk = 0.0000000
        k (    3) = (   0.0000000   0.0000000  -0.5000000), wk = 0.2500000
        k (    4) = (  -0.0000000  -0.5000000  -1.0000000), wk = 0.0000000
        k (    5) = (   0.0000000  -0.5000000   0.0000000), wk = 0.2500000
        k (    6) = (   0.0000000  -1.0000000  -0.5000000), wk = 0.0000000
        k (    7) = (  -0.0000000  -0.5000000  -0.5000000), wk = 0.2500000
        k (    8) = (  -0.0000000  -1.0000000  -1.0000000), wk = 0.0000000
        k (    9) = (  -0.5000000   0.0000000  -0.5000000), wk = 0.2500000
        k (   10) = (  -0.5000000  -0.5000000  -1.0000000), wk = 0.0000000
        k (   11) = (  -0.5000000  -0.5000000  -0.5000000), wk = 0.2500000
        k (   12) = (  -0.5000000  -1.0000000  -1.0000000), wk = 0.0000000
        k (   13) = (  -0.5000000   0.0000000   0.0000000), wk = 0.2500000
        k (   14) = (  -0.5000000  -0.5000000  -0.5000000), wk = 0.0000000
        k (   15) = (  -0.5000000  -0.5000000  -0.0000000), wk = 0.2500000
        k (   16) = (  -0.5000000  -1.0000000  -0.5000000), wk = 0.0000000

     Atomic wfc used for the projector on the Hubbard manifold are orthogonalized

     Total time spent up to now is:
     HP           :      6.17s CPU      7.88s WALL

      =--------------------------------------------=
                 SOLVE THE LINEAR SYSTEM
      =--------------------------------------------=

      atom #  1   q point #   4   iter #   1
      chi:   1  -0.5291441092
      chi:   2  -0.0209281228
      chi:   3  -0.0209022638
      Average number of iter. to solve lin. system:   37.0
      Total CPU time :     8.3 s

      atom #  1   q point #   4   iter #   2
      chi:   1   1.0485511243   residue:    1.5776952335
      chi:   2   0.0177485839   residue:    0.0386767067
      chi:   3   0.0176523118   residue:    0.0385545756
      Average number of iter. to solve lin. system:   14.9
      Total CPU time :     8.7 s

      atom #  1   q point #   4   iter #   3
      chi:   1  -0.1177045030   residue:    1.1662556273
      chi:   2  -0.0067285937   residue:    0.0244771776
      chi:   3  -0.0067804917   residue:    0.0244328035
      Average number of iter. to solve lin. system:   13.0
      Total CPU time :     8.9 s

      atom #  1   q point #   4   iter #   4
      chi:   1  -0.1107722187   residue:    0.0069322843
      chi:   2  -0.0074930672   residue:    0.0007644734
      chi:   3  -0.0074511544   residue:    0.0006706626
      Average number of iter. to solve lin. system:   14.2
      Total CPU time :     9.2 s

      atom #  1   q point #   4   iter #   5
      chi:   1  -0.1012797191   residue:    0.0094924996
      chi:   2  -0.0068995909   residue:    0.0005934763
      chi:   3  -0.0069893744   residue:    0.0004617799
      Average number of iter. to solve lin. system:   15.0
      Total CPU time :     9.6 s

      atom #  1   q point #   4   iter #   6
      chi:   1  -0.1003142136   residue:    0.0009655055
      chi:   2  -0.0071370027   residue:    0.0002374118
      chi:   3  -0.0070851167   residue:    0.0000957423
      Average number of iter. to solve lin. system:   17.2
      Total CPU time :     9.9 s

      =--------------------------------------------=
             CONVERGENCE HAS BEEN REACHED
      =--------------------------------------------=


     =-------------------------------------------------------------=

     Calculation for q #   5 = (   0.0000000   1.0166254  -0.3528381 )

     =-------------------------------------------------------------=

     Performing NSCF calculation at all points k and k+q...

     Parallelization info
     --------------------
     sticks:   dense  smooth     PW     G-vecs:    dense   smooth      PW
     Min         114      57     22                 1702      603     152
     Max         115      58     23                 1704      604     153
     Sum         913     459    179                13621     4825    1219

     Using Slab Decomposition



     bravais-lattice index     =            0
     lattice parameter (alat)  =       9.3705  a.u.
     unit-cell volume          =     217.1087 (a.u.)^3
     number of atoms/cell      =            4
     number of atomic types    =            3
     number of electrons       =        32.00
     number of Kohn-Sham states=           16
     kinetic-energy cutoff     =      30.0000  Ry
     charge density cutoff     =     240.0000  Ry
     Exchange-correlation= PBE
                           (   1   4   3   4   0   0   0)
     Hubbard projectors: ortho-atomic

     Internal variables: lda_plus_u = T, lda_plus_u_kind = 2

     celldm(1)=   9.370493  celldm(2)=   0.000000  celldm(3)=   0.000000
     celldm(4)=   0.000000  celldm(5)=   0.000000  celldm(6)=   0.000000

     crystal axes: (cart. coord. in units of alat)
               a(1) = (   0.283954  -0.163942   0.944719 )
               a(2) = (   0.000000   0.327881   0.944719 )
               a(3) = (  -0.283954  -0.163942   0.944719 )

     reciprocal axes: (cart. coord. in units 2 pi/alat)
               b(1) = (  1.760847 -1.016625  0.352838 )
               b(2) = (  0.000000  2.033251  0.352840 )
               b(3) = ( -1.760847 -1.016625  0.352838 )


     PseudoPot. # 1 for Co read from file:
     ~/Pseudos/SSSP/Co_pbe_v1.2.uspp.F.UPF
     MD5 check sum: Not computed, couldn't open file
     Pseudo is Ultrasoft + core correction, Zval = 17.0
     Generated by new atomic code, or converted to UPF format
     Using radial grid of  863 points,  6 beta functions with:
                l(1) =   0
                l(2) =   0
                l(3) =   1
                l(4) =   1
                l(5) =   2
                l(6) =   2
     Q(r) pseudized with  8 coefficients,  rinner =    1.200   1.200   1.200
                                                       1.200   1.200

     PseudoPot. # 2 for Li read from file:
     ~/Pseudos/SSSP/li_pbe_v1.4.uspp.F.UPF
     MD5 check sum: Not computed, couldn't open file
     Pseudo is Ultrasoft, Zval =  3.0
     Generated by new atomic code, or converted to UPF format
     Using radial grid of  751 points,  5 beta functions with:
                l(1) =   0
                l(2) =   0
                l(3) =   0
                l(4) =   1
                l(5) =   1
     Q(r) pseudized with 10 coefficients,  rinner =    1.150   1.150   1.150


     PseudoPot. # 3 for O  read from file:
     ~/Pseudos/SSSP/O.pbe-n-kjpaw_psl.0.1.UPF
     MD5 check sum: Not computed, couldn't open file
     Pseudo is Projector augmented-wave + core cor, Zval =  6.0
     Generated using "atomic" code by A. Dal Corso  v.5.0.99 svn rev. 10869
     Shape of augmentation charge: BESSEL
     Using radial grid of 1095 points,  4 beta functions with:
                l(1) =   0
                l(2) =   0
                l(3) =   1
                l(4) =   1
     Q(r) pseudized with 0 coefficients


     atomic species   valence    mass     pseudopotential
        Co            17.00    58.93319     Co( 1.00)
        Li             3.00     6.94100     Li( 1.00)
        O              6.00    15.99940     O ( 1.00)

      2 Sym. Ops. (no inversion) found



   Cartesian axes

     site n.     atom                  positions (alat units)
         1           Co  tau(   1) = (   0.0000000   0.0000000   0.0000000  )
         2           O   tau(   2) = (   0.0000000   0.0000000   0.7382652  )
         3           O   tau(   3) = (   0.0000000   0.0000000   2.0957311  )
         4           Li  tau(   4) = (   0.0000000   0.0000000   1.4170788  )

     number of k points=    12
                       cart. coord. in units 2pi/alat
        k(    1) = (   0.0000000   0.0000000   0.0000000), wk =   0.2500000
        k(    2) = (   0.0000000   1.0166254  -0.3528381), wk =   0.0000000
        k(    3) = (   0.8804236   0.5083127  -0.1764190), wk =   0.5000000
        k(    4) = (   0.8804236   1.5249381  -0.5292571), wk =   0.0000000
        k(    5) = (   0.0000000  -1.0166254  -0.1764201), wk =   0.2500000
        k(    6) = (   0.0000000   0.0000000  -0.5292582), wk =   0.0000000
        k(    7) = (   0.8804236  -0.5083127  -0.3528391), wk =   0.5000000
        k(    8) = (   0.8804236   0.5083127  -0.7056772), wk =   0.0000000
        k(    9) = (   0.0000000   1.0166254  -0.3528381), wk =   0.2500000
        k(   10) = (   0.0000000   2.0332509  -0.7056761), wk =   0.0000000
        k(   11) = (   0.0000000   0.0000000  -0.5292582), wk =   0.2500000
        k(   12) = (   0.0000000   1.0166254  -0.8820962), wk =   0.0000000

     Dense  grid:    13621 G-vectors     FFT dimensions: (  48,  48,  48)

     Smooth grid:     4825 G-vectors     FFT dimensions: (  36,  36,  36)

     Estimated max dynamical RAM per process >      10.11 MB

     Estimated total dynamical RAM >      80.89 MB

     Check: negative core charge=   -0.000026

     The potential is recalculated from file :
     out/HP/aiida.save/charge-density


     STARTING HUBBARD OCCUPATIONS:

     =================== HUBBARD OCCUPATIONS ===================
     ------------------------ ATOM    1 ------------------------
     Tr[ns(  1)] =   7.45274
     eigenvalues:
       0.409  0.409  0.969  0.969  0.970
     eigenvectors (columns):
      -0.000 -0.000 -0.000 -0.000 -1.000
       0.000  0.805 -0.000 -0.594  0.000
      -0.805  0.000 -0.594  0.000  0.000
      -0.594  0.000  0.805 -0.000 -0.000
       0.000  0.594  0.000  0.805 -0.000
     occupation matrix ns (before diag.):
       0.970 -0.000 -0.000 -0.000  0.000
      -0.000  0.607 -0.000  0.000 -0.267
      -0.000 -0.000  0.607 -0.267  0.000
      -0.000  0.000 -0.267  0.772 -0.000
       0.000 -0.267  0.000 -0.000  0.772
     ------------------------ ATOM    2 ------------------------
     Tr[ns(  2)] =   4.70394
     eigenvalues:
       0.773  0.773  0.807
     eigenvectors (columns):
      -0.000 -0.000  1.000
       0.000 -1.000 -0.000
       1.000  0.000  0.000
     occupation matrix ns (before diag.):
       0.807 -0.000  0.000
      -0.000  0.773 -0.000
       0.000 -0.000  0.773
     ------------------------ ATOM    3 ------------------------
     Tr[ns(  3)] =   4.70382
     eigenvalues:
       0.773  0.773  0.807
     eigenvectors (columns):
      -0.000 -0.000  1.000
      -1.000  0.000 -0.000
      -0.000 -1.000 -0.000
     occupation matrix ns (before diag.):
       0.807 -0.000 -0.000
      -0.000  0.773 -0.000
      -0.000 -0.000  0.773

     Number of occupied Hubbard levels =   16.8605

     Atomic wfc used for Hubbard projectors are orthogonalized

     Starting wfcs are   26 atomic wfcs
     Checking if some PAW data can be deallocated...

     Band Structure Calculation
     Davidson diagonalization with overlap

     ethr =  1.00E-11,  avg # of iterations = 11.8

     total cpu time spent up to now is       -1.0 secs

     End of band structure calculation

          k = 0.0000 0.0000 0.0000 (   615 PWs)   bands (ev):

   -84.1656 -47.4184 -47.4184 -47.3791 -34.0915  -9.5070  -7.8021   3.7186
     5.6494   5.6494   8.5663   8.6422   8.6423   9.7572   9.7572  10.6804

          k = 0.0000 1.0166-0.3528 (   604 PWs)   bands (ev):

   -84.1579 -47.4865 -47.4369 -47.3662 -34.0545  -7.9090  -7.8084   3.4116
     4.3750   6.0339   6.5890   7.1037   7.2848   9.6103  10.4289  10.7569

          k = 0.8804 0.5083-0.1764 (   600 PWs)   bands (ev):

   -84.1576 -47.4809 -47.4347 -47.3695 -34.0542  -7.9373  -7.7896   3.5667
     5.0995   5.5364   5.8854   7.1548   7.3660   9.8286  10.4374  10.7925

          k = 0.8804 1.5249-0.5293 (   600 PWs)   bands (ev):

   -84.1576 -47.4809 -47.4347 -47.3695 -34.0542  -7.9373  -7.7896   3.5667
     5.0995   5.5364   5.8854   7.1548   7.3660   9.8286  10.4374  10.7925

          k = 0.0000-1.0166-0.1764 (   600 PWs)   bands (ev):

   -84.1576 -47.4809 -47.4347 -47.3695 -34.0542  -7.9373  -7.7896   3.5667
     5.0995   5.5364   5.8854   7.1549   7.3660   9.8286  10.4374  10.7925

          k = 0.0000 0.0000-0.5293 (   598 PWs)   bands (ev):

   -84.1652 -47.4145 -47.4145 -47.3777 -34.0906  -9.3737  -8.0154   4.7898
     5.6985   5.6985   6.9695   8.5972   8.5972   9.7796   9.7796  10.7983

          k = 0.8804-0.5083-0.3528 (   604 PWs)   bands (ev):

   -84.1579 -47.4865 -47.4369 -47.3662 -34.0545  -7.9090  -7.8084   3.4116
     4.3750   6.0339   6.5890   7.1037   7.2848   9.6103  10.4289  10.7568

          k = 0.8804 0.5083-0.7057 (   604 PWs)   bands (ev):

   -84.1579 -47.4865 -47.4369 -47.3662 -34.0545  -7.9090  -7.8084   3.4116
     4.3750   6.0339   6.5890   7.1037   7.2848   9.6103  10.4289  10.7568

          k = 0.0000 1.0166-0.3528 (   604 PWs)   bands (ev):

   -84.1579 -47.4865 -47.4369 -47.3662 -34.0545  -7.9090  -7.8084   3.4116
     4.3750   6.0339   6.5890   7.1037   7.2848   9.6103  10.4289  10.7569

          k = 0.0000 2.0333-0.7057 (   615 PWs)   bands (ev):

   -84.1656 -47.4184 -47.4184 -47.3791 -34.0915  -9.5070  -7.8021   3.7186
     5.6494   5.6494   8.5663   8.6422   8.6423   9.7572   9.7572  10.6804

          k = 0.0000 0.0000-0.5293 (   598 PWs)   bands (ev):

   -84.1652 -47.4145 -47.4145 -47.3777 -34.0906  -9.3737  -8.0154   4.7898
     5.6985   5.6985   6.9695   8.5972   8.5972   9.7796   9.7796  10.7983

          k = 0.0000 1.0166-0.8821 (   600 PWs)   bands (ev):

   -84.1576 -47.4809 -47.4347 -47.3695 -34.0542  -7.9373  -7.7896   3.5667
     5.0995   5.5364   5.8854   7.1549   7.3660   9.8286  10.4374  10.7925

     highest occupied level (ev):    10.7983

     Writing all to output data dir out/HP/aiida.save/
     Done!

                   WRITING LINEAR-RESPONSE SUMMARY:


     Number of symmetries in the small group of q, nsymq =  2
      + the symmetry q -> -q+G

     Symmetry matrices (and vectors of fractional translations if f/=0):

     isym =  1     identity

     cryst.   s( 1) = (     1          0          0      )
                      (     0          1          0      )
                      (     0          0          1      )

     cart.    s( 1) = (  1.0000000  0.0000000  0.0000000 )
                      (  0.0000000  1.0000000  0.0000000 )
                      (  0.0000000  0.0000000  1.0000000 )


     isym =  2     inv. 180 deg rotation - cart. axis [1,0,0]

     cryst.   s( 2) = (     0          0          1      )
                      (     0          1          0      )
                      (     1          0          0      )

     cart.    s( 2) = ( -1.0000000  0.0000000  0.0000000 )
                      (  0.0000000  1.0000000  0.0000000 )
                      (  0.0000000  0.0000000  1.0000000 )


     This transformation sends q -> -q+G

     isym =  3     identity

     cryst.   s( 3) = (     1          0          0      )
                      (     0          1          0      )
                      (     0          0          1      )

     cart.    s( 3) = (  1.0000000  0.0000000  0.0000000 )
                      (  0.0000000  1.0000000  0.0000000 )
                      (  0.0000000  0.0000000  1.0000000 )


     G cutoff =  533.7974  (   1703 G-vectors)     FFT grid: ( 48, 48, 48)
     G cutoff =  266.8987  (    604 G-vectors)  smooth grid: ( 36, 36, 36)

     Number of k (and k+q if q/=0) points =    12

                       cart. coord. (in units 2pi/alat)
        k (    1) = (   0.0000000   0.0000000   0.0000000), wk = 0.2500000
        k (    2) = (   0.0000000   1.0166254  -0.3528381), wk = 0.0000000
        k (    3) = (   0.8804236   0.5083127  -0.1764190), wk = 0.5000000
        k (    4) = (   0.8804236   1.5249381  -0.5292571), wk = 0.0000000
        k (    5) = (   0.0000000  -1.0166254  -0.1764201), wk = 0.2500000
        k (    6) = (   0.0000000   0.0000000  -0.5292582), wk = 0.0000000
        k (    7) = (   0.8804236  -0.5083127  -0.3528391), wk = 0.5000000
        k (    8) = (   0.8804236   0.5083127  -0.7056772), wk = 0.0000000
        k (    9) = (   0.0000000   1.0166254  -0.3528381), wk = 0.2500000
        k (   10) = (   0.0000000   2.0332509  -0.7056761), wk = 0.0000000
        k (   11) = (   0.0000000   0.0000000  -0.5292582), wk = 0.2500000
        k (   12) = (   0.0000000   1.0166254  -0.8820962), wk = 0.0000000

                       cryst. coord.
        k (    1) = (   0.0000000   0.0000000   0.0000000), wk = 0.2500000
        k (    2) = (  -0.5000000   0.0000000  -0.5000000), wk = 0.0000000
        k (    3) = (   0.0000000   0.0000000  -0.5000000), wk = 0.5000000
        k (    4) = (  -0.5000000   0.0000000  -1.0000000), wk = 0.0000000
        k (    5) = (   0.0000000  -0.5000000   0.0000000), wk = 0.2500000
        k (    6) = (  -0.5000000  -0.5000000  -0.5000000), wk = 0.0000000
        k (    7) = (  -0.0000000  -0.5000000  -0.5000000), wk = 0.5000000
        k (    8) = (  -0.5000000  -0.5000000  -1.0000000), wk = 0.0000000
        k (    9) = (  -0.5000000   0.0000000  -0.5000000), wk = 0.2500000
        k (   10) = (  -1.0000000   0.0000000  -1.0000000), wk = 0.0000000
        k (   11) = (  -0.5000000  -0.5000000  -0.5000000), wk = 0.2500000
        k (   12) = (  -1.0000000  -0.5000000  -1.0000000), wk = 0.0000000

     Atomic wfc used for the projector on the Hubbard manifold are orthogonalized

     Total time spent up to now is:
     HP           :      8.19s CPU     10.40s WALL

      =--------------------------------------------=
                 SOLVE THE LINEAR SYSTEM
      =--------------------------------------------=

      atom #  1   q point #   5   iter #   1
      chi:   1  -0.5291429348
      chi:   2  -0.0209279536
      chi:   3  -0.0209013788
      Average number of iter. to solve lin. system:   35.3
      Total CPU time :    10.8 s

      atom #  1   q point #   5   iter #   2
      chi:   1   1.0485453039   residue:    1.5776882388
      chi:   2   0.0177537813   residue:    0.0386817350
      chi:   3   0.0176368914   residue:    0.0385382702
      Average number of iter. to solve lin. system:   14.2
      Total CPU time :    11.0 s

      atom #  1   q point #   5   iter #   3
      chi:   1  -0.1177044037   residue:    1.1662497076
      chi:   2  -0.0067108190   residue:    0.0244646003
      chi:   3  -0.0067847078   residue:    0.0244215991
      Average number of iter. to solve lin. system:   12.3
      Total CPU time :    11.3 s

      atom #  1   q point #   5   iter #   4
      chi:   1  -0.1107735403   residue:    0.0069308634
      chi:   2  -0.0075107403   residue:    0.0007999213
      chi:   3  -0.0074431634   residue:    0.0006584556
      Average number of iter. to solve lin. system:   13.8
      Total CPU time :    11.5 s

      atom #  1   q point #   5   iter #   5
      chi:   1  -0.1013147181   residue:    0.0094588222
      chi:   2  -0.0068726194   residue:    0.0006381209
      chi:   3  -0.0070097970   residue:    0.0004333664
      Average number of iter. to solve lin. system:   14.3
      Total CPU time :    11.8 s

      atom #  1   q point #   5   iter #   6
      chi:   1  -0.1003105562   residue:    0.0010041619
      chi:   2  -0.0071489104   residue:    0.0002762910
      chi:   3  -0.0070676927   residue:    0.0000578957
      Average number of iter. to solve lin. system:   17.2
      Total CPU time :    12.1 s

      atom #  1   q point #   5   iter #   7
      chi:   1  -0.1011833896   residue:    0.0008728334
      chi:   2  -0.0070686886   residue:    0.0000802218
      chi:   3  -0.0071479781   residue:    0.0000802854
      Average number of iter. to solve lin. system:   14.3
      Total CPU time :    12.4 s

      =--------------------------------------------=
             CONVERGENCE HAS BEEN REACHED
      =--------------------------------------------=


     =-------------------------------------------------------------=

     Calculation for q #   6 = (   0.0000000   0.0000000  -0.5292582 )

     =-------------------------------------------------------------=

     Performing NSCF calculation at all points k and k+q...

     Parallelization info
     --------------------
     sticks:   dense  smooth     PW     G-vecs:    dense   smooth      PW
     Min         114      57     19                 1702      603     120
     Max         115      58     20                 1704      604     121
     Sum         913     459    159                13621     4825     965

     Using Slab Decomposition



     bravais-lattice index     =            0
     lattice parameter (alat)  =       9.3705  a.u.
     unit-cell volume          =     217.1087 (a.u.)^3
     number of atoms/cell      =            4
     number of atomic types    =            3
     number of electrons       =        32.00
     number of Kohn-Sham states=           16
     kinetic-energy cutoff     =      30.0000  Ry
     charge density cutoff     =     240.0000  Ry
     Exchange-correlation= PBE
                           (   1   4   3   4   0   0   0)
     Hubbard projectors: ortho-atomic

     Internal variables: lda_plus_u = T, lda_plus_u_kind = 2

     celldm(1)=   9.370493  celldm(2)=   0.000000  celldm(3)=   0.000000
     celldm(4)=   0.000000  celldm(5)=   0.000000  celldm(6)=   0.000000

     crystal axes: (cart. coord. in units of alat)
               a(1) = (   0.283954  -0.163942   0.944719 )
               a(2) = (   0.000000   0.327881   0.944719 )
               a(3) = (  -0.283954  -0.163942   0.944719 )

     reciprocal axes: (cart. coord. in units 2 pi/alat)
               b(1) = (  1.760847 -1.016625  0.352838 )
               b(2) = (  0.000000  2.033251  0.352840 )
               b(3) = ( -1.760847 -1.016625  0.352838 )


     PseudoPot. # 1 for Co read from file:
     ~/Pseudos/SSSP/Co_pbe_v1.2.uspp.F.UPF
     MD5 check sum: Not computed, couldn't open file
     Pseudo is Ultrasoft + core correction, Zval = 17.0
[...]


     G cutoff =  533.7974  (   1703 G-vectors)     FFT grid: ( 48, 48, 48)
     G cutoff =  266.8987  (    604 G-vectors)  smooth grid: ( 36, 36, 36)

     Number of k (and k+q if q/=0) points =    16

                       cart. coord. (in units 2pi/alat)
        k (    1) = (   0.0000000   0.0000000   0.0000000), wk = 0.2500000
        k (    2) = (   0.8804236   0.5083127  -0.1764190), wk = 0.0000000
        k (    3) = (   0.8804236   0.5083127  -0.1764190), wk = 0.2500000
        k (    4) = (   1.7608473   1.0166254  -0.3528381), wk = 0.0000000
        k (    5) = (   0.0000000  -1.0166254  -0.1764201), wk = 0.2500000
        k (    6) = (   0.8804236  -0.5083127  -0.3528391), wk = 0.0000000
        k (    7) = (   0.8804236  -0.5083127  -0.3528391), wk = 0.2500000
        k (    8) = (   1.7608473   0.0000000  -0.5292582), wk = 0.0000000
        k (    9) = (   0.0000000   1.0166254  -0.3528381), wk = 0.2500000
        k (   10) = (   0.8804236   1.5249381  -0.5292571), wk = 0.0000000
        k (   11) = (   0.0000000   0.0000000  -0.5292582), wk = 0.2500000
        k (   12) = (   0.8804236   0.5083127  -0.7056772), wk = 0.0000000
        k (   13) = (  -0.8804236   0.5083127  -0.1764190), wk = 0.2500000
        k (   14) = (   0.0000000   1.0166254  -0.3528381), wk = 0.0000000
        k (   15) = (  -0.8804236  -0.5083127  -0.3528391), wk = 0.2500000
        k (   16) = (   0.0000000   0.0000000  -0.5292582), wk = 0.0000000

                       cryst. coord.
        k (    1) = (   0.0000000   0.0000000   0.0000000), wk = 0.2500000
        k (    2) = (   0.0000000   0.0000000  -0.5000000), wk = 0.0000000
        k (    3) = (   0.0000000   0.0000000  -0.5000000), wk = 0.2500000
        k (    4) = (   0.0000000   0.0000000  -1.0000000), wk = 0.0000000
        k (    5) = (   0.0000000  -0.5000000   0.0000000), wk = 0.2500000
        k (    6) = (  -0.0000000  -0.5000000  -0.5000000), wk = 0.0000000
        k (    7) = (  -0.0000000  -0.5000000  -0.5000000), wk = 0.2500000
        k (    8) = (  -0.0000000  -0.5000000  -1.0000000), wk = 0.0000000
        k (    9) = (  -0.5000000   0.0000000  -0.5000000), wk = 0.2500000
        k (   10) = (  -0.5000000   0.0000000  -1.0000000), wk = 0.0000000
        k (   11) = (  -0.5000000  -0.5000000  -0.5000000), wk = 0.2500000
        k (   12) = (  -0.5000000  -0.5000000  -1.0000000), wk = 0.0000000
        k (   13) = (  -0.5000000   0.0000000   0.0000000), wk = 0.2500000
        k (   14) = (  -0.5000000   0.0000000  -0.5000000), wk = 0.0000000
        k (   15) = (  -0.5000000  -0.5000000  -0.0000000), wk = 0.2500000
        k (   16) = (  -0.5000000  -0.5000000  -0.5000000), wk = 0.0000000

     Atomic wfc used for the projector on the Hubbard manifold are orthogonalized

     Total time spent up to now is:
     HP           :     13.47s CPU     17.07s WALL

      =--------------------------------------------=
                 SOLVE THE LINEAR SYSTEM
      =--------------------------------------------=

      atom #  2   q point #   2   iter #   1
      chi:   1   0.0211229491
      chi:   2  -0.2295433641
      chi:   3  -0.0283869818
      Average number of iter. to solve lin. system:   43.8
      Total CPU time :    17.6 s

      atom #  2   q point #   2   iter #   2
      chi:   1  -0.0103740956   residue:    0.0314970447
      chi:   2  -0.0169221946   residue:    0.2126211696
      chi:   3   0.0316015506   residue:    0.0599885323
      Average number of iter. to solve lin. system:   16.9
      Total CPU time :    17.9 s

      atom #  2   q point #   2   iter #   3
      chi:   1   0.0336697823   residue:    0.0440438779
      chi:   2  -0.0795338940   residue:    0.0626116994
      chi:   3  -0.0070992828   residue:    0.0387008333
      Average number of iter. to solve lin. system:   16.6
      Total CPU time :    18.2 s

      atom #  2   q point #   2   iter #   4
      chi:   1  -0.0098669705   residue:    0.0435367528
      chi:   2  -0.0782794264   residue:    0.0012544676
      chi:   3  -0.0046836512   residue:    0.0024156316
      Average number of iter. to solve lin. system:   15.5
      Total CPU time :    18.5 s

      atom #  2   q point #   2   iter #   5
      chi:   1   0.0095049634   residue:    0.0193719339
      chi:   2  -0.0782460287   residue:    0.0000333977
      chi:   3  -0.0018682569   residue:    0.0028153943
      Average number of iter. to solve lin. system:   15.5
      Total CPU time :    18.8 s

      atom #  2   q point #   2   iter #   6
      chi:   1   0.0072909197   residue:    0.0022140437
      chi:   2  -0.0775862779   residue:    0.0006597508
      chi:   3  -0.0023032497   residue:    0.0004349927
      Average number of iter. to solve lin. system:   17.6
      Total CPU time :    19.2 s

      atom #  2   q point #   2   iter #   7
      chi:   1   0.0073934508   residue:    0.0001025311
      chi:   2  -0.0774171702   residue:    0.0001691078
      chi:   3  -0.0022185968   residue:    0.0000846528
      Average number of iter. to solve lin. system:   16.4
      Total CPU time :    19.5 s

      =--------------------------------------------=
             CONVERGENCE HAS BEEN REACHED
      =--------------------------------------------=


     =-------------------------------------------------------------=

     Calculation for q #   3 = (   0.0000000  -1.0166254  -0.1764201 )

     =-------------------------------------------------------------=

     Performing NSCF calculation at all points k and k+q...

     Parallelization info
     --------------------
     sticks:   dense  smooth     PW     G-vecs:    dense   smooth      PW
     Min         114      57     22                 1702      603     147
     Max         115      58     23                 1704      604     149
     Sum         913     459    179                13621     4825    1183

     Using Slab Decomposition



     bravais-lattice index     =            0
     lattice parameter (alat)  =       9.3705  a.u.
     unit-cell volume          =     217.1087 (a.u.)^3
     number of atoms/cell      =            4
     number of atomic types    =            3
     number of electrons       =        32.00
     number of Kohn-Sham states=           16
     kinetic-energy cutoff     =      30.0000  Ry
     charge density cutoff     =     240.0000  Ry
     Exchange-correlation= PBE
                           (   1   4   3   4   0   0   0)
     Hubbard projectors: ortho-atomic

     Internal variables: lda_plus_u = T, lda_plus_u_kind = 2

     celldm(1)=   9.370493  celldm(2)=   0.000000  celldm(3)=   0.000000
     celldm(4)=   0.000000  celldm(5)=   0.000000  celldm(6)=   0.000000

     crystal axes: (cart. coord. in units of alat)
               a(1) = (   0.283954  -0.163942   0.944719 )
               a(2) = (   0.000000   0.327881   0.944719 )
               a(3) = (  -0.283954  -0.163942   0.944719 )

     reciprocal axes: (cart. coord. in units 2 pi/alat)
               b(1) = (  1.760847 -1.016625  0.352838 )
               b(2) = (  0.000000  2.033251  0.352840 )
               b(3) = ( -1.760847 -1.016625  0.352838 )


     PseudoPot. # 1 for Co read from file:
     ~/Pseudos/SSSP/Co_pbe_v1.2.uspp.F.UPF
     MD5 check sum: Not computed, couldn't open file
     Pseudo is Ultrasoft + core correction, Zval = 17.0
     Generated by new atomic code, or converted to UPF format
     Using radial grid of  863 points,  6 beta functions with:
                l(1) =   0
                l(2) =   0
                l(3) =   1
                l(4) =   1
                l(5) =   2
                l(6) =   2
     Q(r) pseudized with  8 coefficients,  rinner =    1.200   1.200   1.200
                                                       1.200   1.200

     PseudoPot. # 2 for Li read from file:
     ~/Pseudos/SSSP/li_pbe_v1.4.uspp.F.UPF
     MD5 check sum: Not computed, couldn't open file
     Pseudo is Ultrasoft, Zval =  3.0
     Generated by new atomic code, or converted to UPF format
     Using radial grid of  751 points,  5 beta functions with:
                l(1) =   0
                l(2) =   0
                l(3) =   0
                l(4) =   1
                l(5) =   1
     Q(r) pseudized with 10 coefficients,  rinner =    1.150   1.150   1.150


     PseudoPot. # 3 for O  read from file:
     ~/Pseudos/SSSP/O.pbe-n-kjpaw_psl.0.1.UPF
     MD5 check sum: Not computed, couldn't open file
     Pseudo is Projector augmented-wave + core cor, Zval =  6.0
     Generated using "atomic" code by A. Dal Corso  v.5.0.99 svn rev. 10869
     Shape of augmentation charge: BESSEL
     Using radial grid of 1095 points,  4 beta functions with:
                l(1) =   0
                l(2) =   0
                l(3) =   1
                l(4) =   1
     Q(r) pseudized with 0 coefficients


     atomic species   valence    mass     pseudopotential
        Co            17.00    58.93319     Co( 1.00)
        Li             3.00     6.94100     Li( 1.00)
        O              6.00    15.99940     O ( 1.00)

      2 Sym. Ops. (no inversion) found



   Cartesian axes

     site n.     atom                  positions (alat units)
         1           Co  tau(   1) = (   0.0000000   0.0000000   0.0000000  )
         2           O   tau(   2) = (   0.0000000   0.0000000   0.7382652  )
         3           O   tau(   3) = (   0.0000000   0.0000000   2.0957311  )
         4           Li  tau(   4) = (   0.0000000   0.0000000   1.4170788  )

     number of k points=    12
                       cart. coord. in units 2pi/alat
        k(    1) = (   0.0000000   0.0000000   0.0000000), wk =   0.2500000
        k(    2) = (   0.0000000  -1.0166254  -0.1764201), wk =   0.0000000
        k(    3) = (   0.8804236   0.5083127  -0.1764190), wk =   0.5000000
        k(    4) = (   0.8804236  -0.5083127  -0.3528391), wk =   0.0000000
        k(    5) = (   0.0000000  -1.0166254  -0.1764201), wk =   0.2500000
        k(    6) = (   0.0000000  -2.0332509  -0.3528402), wk =   0.0000000
        k(    7) = (   0.8804236  -0.5083127  -0.3528391), wk =   0.5000000
        k(    8) = (   0.8804236  -1.5249381  -0.5292593), wk =   0.0000000
        k(    9) = (   0.0000000   1.0166254  -0.3528381), wk =   0.2500000
        k(   10) = (   0.0000000   0.0000000  -0.5292582), wk =   0.0000000
        k(   11) = (   0.0000000   0.0000000  -0.5292582), wk =   0.2500000
        k(   12) = (   0.0000000  -1.0166254  -0.7056783), wk =   0.0000000

     Dense  grid:    13621 G-vectors     FFT dimensions: (  48,  48,  48)

     Smooth grid:     4825 G-vectors     FFT dimensions: (  36,  36,  36)

     Estimated max dynamical RAM per process >      10.10 MB

     Estimated total dynamical RAM >      80.83 MB

     Check: negative core charge=   -0.000026

     The potential is recalculated from file :
     out/HP/aiida.save/charge-density


     STARTING HUBBARD OCCUPATIONS:

     =================== HUBBARD OCCUPATIONS ===================
     ------------------------ ATOM    1 ------------------------
     Tr[ns(  1)] =   7.45274
     eigenvalues:
       0.409  0.409  0.969  0.969  0.970
     eigenvectors (columns):
      -0.000 -0.000 -0.000 -0.000 -1.000
       0.000  0.805 -0.000 -0.594  0.000
      -0.805  0.000 -0.594  0.000  0.000
      -0.594  0.000  0.805 -0.000 -0.000
       0.000  0.594  0.000  0.805 -0.000
     occupation matrix ns (before diag.):
       0.970 -0.000 -0.000 -0.000  0.000
      -0.000  0.607 -0.000  0.000 -0.267
      -0.000 -0.000  0.607 -0.267  0.000
      -0.000  0.000 -0.267  0.772 -0.000
       0.000 -0.267  0.000 -0.000  0.772
     ------------------------ ATOM    2 ------------------------
     Tr[ns(  2)] =   4.70394
     eigenvalues:
       0.773  0.773  0.807
     eigenvectors (columns):
      -0.000 -0.000  1.000
       0.000 -1.000 -0.000
       1.000  0.000  0.000
     occupation matrix ns (before diag.):
       0.807 -0.000  0.000
      -0.000  0.773 -0.000
       0.000 -0.000  0.773
     ------------------------ ATOM    3 ------------------------
     Tr[ns(  3)] =   4.70382
     eigenvalues:
       0.773  0.773  0.807
     eigenvectors (columns):
      -0.000 -0.000  1.000
      -1.000  0.000 -0.000
      -0.000 -1.000 -0.000
     occupation matrix ns (before diag.):
       0.807 -0.000 -0.000
      -0.000  0.773 -0.000
      -0.000 -0.000  0.773

     Number of occupied Hubbard levels =   16.8605

     Atomic wfc used for Hubbard projectors are orthogonalized

     Starting wfcs are   26 atomic wfcs
     Checking if some PAW data can be deallocated...

     Band Structure Calculation
     Davidson diagonalization with overlap

     ethr =  1.00E-11,  avg # of iterations = 11.8

     total cpu time spent up to now is       -1.0 secs

     End of band structure calculation

          k = 0.0000 0.0000 0.0000 (   615 PWs)   bands (ev):

   -84.1656 -47.4184 -47.4184 -47.3791 -34.0915  -9.5070  -7.8021   3.7186
     5.6494   5.6494   8.5663   8.6422   8.6423   9.7572   9.7572  10.6804

          k = 0.0000-1.0166-0.1764 (   600 PWs)   bands (ev):

   -84.1576 -47.4809 -47.4347 -47.3695 -34.0542  -7.9373  -7.7896   3.5667
     5.0995   5.5364   5.8854   7.1549   7.3660   9.8286  10.4374  10.7925

          k = 0.8804 0.5083-0.1764 (   600 PWs)   bands (ev):

   -84.1576 -47.4809 -47.4347 -47.3695 -34.0542  -7.9373  -7.7896   3.5667
     5.0995   5.5364   5.8854   7.1548   7.3660   9.8286  10.4374  10.7925

          k = 0.8804-0.5083-0.3528 (   604 PWs)   bands (ev):

   -84.1579 -47.4865 -47.4369 -47.3662 -34.0545  -7.9090  -7.8084   3.4116
     4.3750   6.0339   6.5890   7.1037   7.2848   9.6103  10.4289  10.7568

          k = 0.0000-1.0166-0.1764 (   600 PWs)   bands (ev):

   -84.1576 -47.4809 -47.4347 -47.3695 -34.0542  -7.9373  -7.7896   3.5667
     5.0995   5.5364   5.8854   7.1549   7.3660   9.8286  10.4374  10.7925

          k = 0.0000-2.0333-0.3528 (   615 PWs)   bands (ev):

   -84.1656 -47.4184 -47.4184 -47.3791 -34.0915  -9.5070  -7.8021   3.7186
     5.6494   5.6494   8.5663   8.6422   8.6423   9.7572   9.7572  10.6804

          k = 0.8804-0.5083-0.3528 (   604 PWs)   bands (ev):

   -84.1579 -47.4865 -47.4369 -47.3662 -34.0545  -7.9090  -7.8084   3.4116
     4.3750   6.0339   6.5890   7.1037   7.2848   9.6103  10.4289  10.7568

          k = 0.8804-1.5249-0.5293 (   600 PWs)   bands (ev):

   -84.1576 -47.4809 -47.4347 -47.3695 -34.0542  -7.9373  -7.7896   3.5667
     5.0995   5.5364   5.8854   7.1548   7.3660   9.8286  10.4374  10.7925

          k = 0.0000 1.0166-0.3528 (   604 PWs)   bands (ev):

   -84.1579 -47.4865 -47.4369 -47.3662 -34.0545  -7.9090  -7.8084   3.4116
     4.3750   6.0339   6.5890   7.1037   7.2848   9.6103  10.4289  10.7568

          k = 0.0000 0.0000-0.5293 (   598 PWs)   bands (ev):

   -84.1652 -47.4145 -47.4145 -47.3777 -34.0906  -9.3737  -8.0154   4.7898
     5.6985   5.6985   6.9695   8.5972   8.5972   9.7796   9.7796  10.7983

          k = 0.0000 0.0000-0.5293 (   598 PWs)   bands (ev):

   -84.1652 -47.4145 -47.4145 -47.3777 -34.0906  -9.3737  -8.0154   4.7898
     5.6985   5.6985   6.9695   8.5972   8.5972   9.7796   9.7796  10.7983

          k = 0.0000-1.0166-0.7057 (   604 PWs)   bands (ev):

   -84.1579 -47.4865 -47.4369 -47.3662 -34.0545  -7.9090  -7.8084   3.4116
     4.3750   6.0339   6.5890   7.1037   7.2848   9.6103  10.4289  10.7568

     highest occupied level (ev):    10.7983

     Writing all to output data dir out/HP/aiida.save/
     Done!

                   WRITING LINEAR-RESPONSE SUMMARY:


     Number of symmetries in the small group of q, nsymq =  2
      + the symmetry q -> -q+G

     Symmetry matrices (and vectors of fractional translations if f/=0):

     isym =  1     identity

     cryst.   s( 1) = (     1          0          0      )
                      (     0          1          0      )
                      (     0          0          1      )

     cart.    s( 1) = (  1.0000000  0.0000000  0.0000000 )
                      (  0.0000000  1.0000000  0.0000000 )
                      (  0.0000000  0.0000000  1.0000000 )


     isym =  2     inv. 180 deg rotation - cart. axis [1,0,0]

     cryst.   s( 2) = (     0          0          1      )
                      (     0          1          0      )
                      (     1          0          0      )

     cart.    s( 2) = ( -1.0000000  0.0000000  0.0000000 )
                      (  0.0000000  1.0000000  0.0000000 )
                      (  0.0000000  0.0000000  1.0000000 )


     This transformation sends q -> -q+G

     isym =  3     identity

     cryst.   s( 3) = (     1          0          0      )
                      (     0          1          0      )
                      (     0          0          1      )

     cart.    s( 3) = (  1.0000000  0.0000000  0.0000000 )
                      (  0.0000000  1.0000000  0.0000000 )
                      (  0.0000000  0.0000000  1.0000000 )


     G cutoff =  533.7974  (   1703 G-vectors)     FFT grid: ( 48, 48, 48)
     G cutoff =  266.8987  (    604 G-vectors)  smooth grid: ( 36, 36, 36)

     Number of k (and k+q if q/=0) points =    12

                       cart. coord. (in units 2pi/alat)
        k (    1) = (   0.0000000   0.0000000   0.0000000), wk = 0.2500000
        k (    2) = (   0.0000000  -1.0166254  -0.1764201), wk = 0.0000000
        k (    3) = (   0.8804236   0.5083127  -0.1764190), wk = 0.5000000
        k (    4) = (   0.8804236  -0.5083127  -0.3528391), wk = 0.0000000
        k (    5) = (   0.0000000  -1.0166254  -0.1764201), wk = 0.2500000
        k (    6) = (   0.0000000  -2.0332509  -0.3528402), wk = 0.0000000
        k (    7) = (   0.8804236  -0.5083127  -0.3528391), wk = 0.5000000
        k (    8) = (   0.8804236  -1.5249381  -0.5292593), wk = 0.0000000
        k (    9) = (   0.0000000   1.0166254  -0.3528381), wk = 0.2500000
        k (   10) = (   0.0000000   0.0000000  -0.5292582), wk = 0.0000000
        k (   11) = (   0.0000000   0.0000000  -0.5292582), wk = 0.2500000
        k (   12) = (   0.0000000  -1.0166254  -0.7056783), wk = 0.0000000

                       cryst. coord.
        k (    1) = (   0.0000000   0.0000000   0.0000000), wk = 0.2500000
        k (    2) = (   0.0000000  -0.5000000   0.0000000), wk = 0.0000000
        k (    3) = (   0.0000000   0.0000000  -0.5000000), wk = 0.5000000
        k (    4) = (  -0.0000000  -0.5000000  -0.5000000), wk = 0.0000000
        k (    5) = (   0.0000000  -0.5000000   0.0000000), wk = 0.2500000
        k (    6) = (   0.0000000  -1.0000000   0.0000000), wk = 0.0000000
        k (    7) = (  -0.0000000  -0.5000000  -0.5000000), wk = 0.5000000
        k (    8) = (   0.0000000  -1.0000000  -0.5000000), wk = 0.0000000
        k (    9) = (  -0.5000000   0.0000000  -0.5000000), wk = 0.2500000
        k (   10) = (  -0.5000000  -0.5000000  -0.5000000), wk = 0.0000000
        k (   11) = (  -0.5000000  -0.5000000  -0.5000000), wk = 0.2500000
        k (   12) = (  -0.5000000  -1.0000000  -0.5000000), wk = 0.0000000

     Atomic wfc used for the projector on the Hubbard manifold are orthogonalized

     Total time spent up to now is:
     HP           :     15.90s CPU     20.07s WALL

      =--------------------------------------------=
                 SOLVE THE LINEAR SYSTEM
      =--------------------------------------------=

      atom #  2   q point #   3   iter #   1
      chi:   1   0.0211228009
      chi:   2  -0.2295432058
      chi:   3  -0.0283868839
      Average number of iter. to solve lin. system:   42.3
      Total CPU time :    20.5 s

     Maximum CPU time exceeded

     max_seconds     =      20.00
     elapsed seconds =      20.30

     HP           :     16.32s CPU     20.56s WALL


   This run was terminated on:  14:59:47  30Mar2023

=------------------------------------------------------------------------------=
   JOB DONE.
=------------------------------------------------------------------------------=
